ITEM: TIMESTEP
100
ITEM: NUMBER OF ATOMS
50
ITEM: BOX BOUNDS xy xz yz pp pp pp
0.0000000000000000e+00 1.4276500000000000e+01 0.0000000000000000e+00
0.0000000000000000e+00 2.8579419500000000e+01 0.0000000000000000e+00
0.0000000000000000e+00 8.7105999999999995e+01 2.6419499999999999e-02
ITEM: ATOMS id x y z c_sz2[1] c_sz2[2] c_sz2[3] c_sz2[4] c_sz2[5] c_sz2[6]
17 14.2817 0.0189876 60.6754 -4192.19 162476 23346.3 -112365 -81091.1 -96165.3
37 14.2911 2.88689 60.7052 181264 121653 157609 -29472.2 3845.58 32018.4
57 14.2881 5.71912 60.6837 61044.3 29476.7 62735.1 -25567.6 -73234.3 102590
77 14.2761 8.60323 60.6733 -101797 -107030 -170089 -132647 -122043 5944.38
97 14.2741 11.4443 60.6578 -49357.7 -110340 -38018.3 19889.6 8369.04 113376
117 14.2843 14.271 60.6644 70980 -151336 -16015.3 -63694.9 56150.9 -81002.4
137 14.2989 17.1249 60.6772 11992.8 -111975 8183.82 111577 -51526.4 34592.4
157 14.2525 19.9811 60.6732 -67732.2 47187 -9094.19 -46261.3 -74648 -50499.4
177 14.2488 22.8728 60.706 -20824.5 80491.3 30339.5 40586.5 215202 -39681.8
197 14.2982 25.6939 60.6906 -78967.9 -82813.5 -65343.6 144597 -87980.3 108972
217 2.8557 -0.00214342 60.6746 -45380.1 70704.9 52549.9 3401.23 48432.4 60865.4
237 2.86474 2.89047 60.6663 58833 55319.5 7504.08 32423.6 -13006.8 5256.8
257 2.87614 5.71351 60.6802 -44459 -65059.7 13446.6 41189.5 78519.2 91626.8
277 2.85107 8.56058 60.6707 -8040.31 -117408 235.242 90700.1 83776 23453.6
297 2.84576 11.4159 60.6721 98256.1 24556.3 15958.3 -131909 -3425.4 4366.11
317 2.85927 14.2884 60.6995 -57023 69514.8 -107496 173868 61934.2 89284.4
337 2.86489 17.1738 60.6821 33634.7 -7699.03 46771.1 -43946.4 83115.4 -119224
357 2.83987 20.0125 60.6985 218749 141824 159387 36736.3 82639.7 -34212.2
377 2.84718 22.8595 60.7041 112409 -2898.18 -39233.9 -16635 56793.7 -9580.93
397 2.84043 25.6933 60.6744 -46475.4 -93352.5 36327.1 15333.8 122448 -1953.75
417 5.68582 -0.00439294 60.6706 -244120 -109957 -84821.4 -96935.8 -58377.8 75530.8
437 5.72889 2.8966 60.7093 -39912.4 49191.4 -61652.9 -12912.2 -143530 -218722
457 5.6959 5.74632 60.6917 -51498.7 -120216 25632.4 -61757.8 36533.1 -8433.02
477 5.71375 8.55917 60.6856 -44552.3 -25657.6 -31673.7 74804.7 32014.2 15801.7
497 5.71959 11.4667 60.7023 117039 162320 77632.6 -43569 -39608.7 -10758.6
517 5.7114 14.3153 60.6755 -60252.7 -136550 -85924.1 -72230.7 100643 -22576.4
537 5.73334 17.1569 60.6953 -74703.6 -30602 26913.7 9457.67 -84208.1 -22808.8
557 5.70318 19.9896 60.7042 35511.7 28261.2 -89091.7 -106055 99333 95124.7
577 5.71215 22.8806 60.6768 -85467.1 -65875.6 -63378.2 -5629.72 -21921.2 46091.4
597 5.7212 25.7157 60.6812 -54991.8 -140417 -92573.4 -36260.5 -183860 -36442
617 8.54245 0.0288818 60.6935 -22515.5 -166768 -112766 -11703.2 -29858.3 11875.9
637 8.56554 2.85582 60.6746 -176837 -224229 -150687 13907.5 110224 -107476
657 8.56711 5.70662 60.6696 52643.7 15158.7 517.68 -24465.3 -32715.7 -5823.26
677 8.5502 8.598 60.6801 -120234 -81132.3 -76485.7 -8325.53 -49975.6 137207
697 8.54969 11.4265 60.6769 -66692.9 -215685 -131412 88968 32307.7 -61351.6
717 8.57029 14.2726 60.6937 -132132 -146952 -130138 931.864 -114687 -67678.5
737 8.55045 17.1299 60.7026 -91222.1 63671.6 32739.3 -97349.2 88623.6 129656
757 8.55658 20.0101 60.6596 -38550.7 65612 -150571 -14055.6 24167.4 -10836.3
777 8.5397 22.8819 60.6744 -106132 -10771.4 33137 179070 43137.7 84364.1
797 8.551 25.727 60.6712 4509.56 -12744.1 17378.3 130629 10793.2 62524.6
817 11.4427 0.0173392 60.6909 69540 157667 73724.9 6335.73 85720.9 11446.2
837 11.4082 2.89952 60.6593 -72610 -159950 -168379 89595.6 -138746 197993
857 11.4258 5.74019 60.7046 -21918.1 -94533.8 -155761 27099.2 -21624.4 -149863
877 11.4166 8.6015 60.6846 22695 -97042.4 41074.3 84071.6 97395 24104.7
897 11.4388 11.4199 60.7046 53073.2 -74998.6 65269.8 -40838.5 -76215.2 54082.8
917 11.3997 14.2785 60.7038 6639.58 125946 -85612.2 -58712.5 85477 62103.2
937 11.3942 17.1722 60.7088 -57708.2 -36547.2 -218397 122861 174608 -101845
957 11.4252 20.0152 60.6666 -60246.3 -28763 -74017.9 -45273.9 -8856.2 66991.5
977 11.4107 22.8784 60.6633 36645.5 -62447.7 -32379.8 15110 -87222.1 73740.2
997 11.422 25.7016 60.6916 111523 -52650 -27300.3 -56315 22978.3 -16027.4
ITEM: TIMESTEP
200
ITEM: NUMBER OF ATOMS
50
ITEM: BOX BOUNDS xy xz yz pp pp pp
0.0000000000000000e+00 1.4276500000000000e+01 0.0000000000000000e+00
0.0000000000000000e+00 2.8579419500000000e+01 0.0000000000000000e+00
0.0000000000000000e+00 8.7105999999999995e+01 2.6419499999999999e-02
ITEM: ATOMS id x y z c_sz2[1] c_sz2[2] c_sz2[3] c_sz2[4] c_sz2[5] c_sz2[6]
17 -1.63141e-05 0.0188431 60.682 -8138.63 -548.343 -1502.77 -4998.1 6561.86 3557.5
37 -4.40706e-05 2.87408 60.6822 -7002.06 -3238.31 -5055.5 -5671.18 -7486.1 -4093.9
57 -9.72792e-05 5.72922 60.6825 -20088.4 -10932.5 1065.22 14357.2 2776.98 1800.8
77 -0.000119027 8.58438 60.6828 -4033.24 -22002.1 61.6767 -8244.18 1244.96 4400.34
97 14.2764 11.4396 60.6829 -1595.36 -1485.05 -38794.3 -328.118 -3066.99 943.836
117 -6.48433e-05 14.2949 60.6829 -2275.48 -35619.2 -21803.2 5725.55 4976.94 -22448.1
137 -4.43747e-05 17.1502 60.6828 -34762.7 -54244.5 -3187.41 42325.9 8180.98 -6459.34
157 14.2765 20.0056 60.6826 -26288.3 -31858.3 -6606.84 -28362.9 -12254.7 -10982.3
177 14.2765 22.861 60.6823 -65430.3 -2365.64 -13671 14605.5 30107.9 -5075.97
197 5.37246e-06 25.7164 60.6821 -30783.4 -37168 -1867.27 35554 -10784.1 12403.7
217 2.85526 28.5718 60.682 391.026 -35811.4 -3052.81 -7784.19 -2571.89 -14572
237 2.85521 2.87409 60.6822 -10203.2 -13391.5 -16951.4 -12879.9 15626.2 17975.8
257 2.85516 5.72924 60.6825 -14153.5 -29879.3 -340.648 20275.1 6445.51 -4779.78
277 2.85512 8.58439 60.6827 -6360.05 -54052.3 -7271.52 -17653.6 -5166.15 -16325.1
297 2.85513 11.4396 60.6829 -4848.9 -44609.1 -11197.6 -13110.2 -5228.16 -17600.9
317 2.85517 14.2949 60.6829 -880.708 -5647.12 -23720.3 520.513 828.995 14674.3
337 2.85522 17.1502 60.6828 -3945.8 -55441.4 -1519.69 -12853.6 2121.46 9339.31
357 2.85527 20.0056 60.6826 -24300.1 -5468.5 -970.824 11713.6 4225.97 894.51
377 2.8553 22.861 60.6823 -8410.97 874.63 -17177 -1587.11 12535.2 4028.77
397 2.85529 25.7164 60.6821 -27231.6 -35964.5 -4004.16 -33365.6 -12890.3 -14063.7
417 5.71054 28.5718 60.682 -30166.6 -42669.1 630.527 -38405.5 -7726.52 -9186.96
437 5.71049 2.87407 60.6822 -26554.2 -44898.2 -26841 -36114.8 -27491.6 -35138
457 5.71044 5.72924 60.6825 -10369 -13371.6 -1127 11607.8 6515.6 -2802.14
477 5.71041 8.58442 60.6827 -117.579 -21543.1 -513.723 -1022.13 1912.97 7310.86
497 5.7104 11.4397 60.6828 -3302.09 -26716.8 -8356.39 -8767.7 -3176.63 -10650.1
517 5.71045 14.2949 60.6828 -1746.69 -37923.3 -1198.99 8324.88 355.105 8748.21
537 5.71052 17.1502 60.6827 -33293.3 -3805.1 -3757.6 -10684.5 -9775.88 -330.012
557 5.71056 20.0056 60.6825 -9451.03 -12586.5 -24025.6 -10978 15611.3 20469.7
577 5.71058 22.8609 60.6822 1032.54 -10111 905.04 -391.201 183.898 3062.43
597 5.71058 25.7164 60.682 -22750.1 2194.7 1572.45 -2314.82 -2973.27 757.46
617 8.56586 0.0187901 60.682 -13673.6 -496.738 -14096.5 6147.13 16662.7 -5722.13
637 8.56582 2.87405 60.6822 -2534.55 -6527.66 2035.87 -5459.9 858.606 1788.34
657 8.56579 5.72922 60.6825 -25.2692 -31532.2 -8261.81 3200.82 2958.07 -13749.5
677 8.56576 8.58441 60.6827 -8453.98 -616.646 -1037.66 290.235 3514.45 3569.14
697 8.56575 11.4397 60.6829 -14816.1 -5582.12 -1074.21 -8557.95 2119.12 4100.57
717 8.5658 14.295 60.6829 -6717.08 -14741 -16634 10005.9 -9018.52 18399.8
737 8.56585 17.1503 60.6827 -17432.5 -33557.4 -10716.2 -23791.6 13662.3 21303.8
757 8.5659 20.0056 60.6825 -12246.4 -1313.47 -16208.1 4914.88 -14219 7778.24
777 8.56593 22.861 60.6822 -55009.4 -16649.7 -4734.67 31843.3 -18006 12121.2
797 8.5659 25.7164 60.682 -11532.4 -3248.23 -7107.86 8593.6 -11034.7 8324.26
817 11.4212 28.5718 60.682 -5268.12 1887.44 786.512 431.579 -3551.78 782.365
837 11.4212 2.87404 60.6822 553.85 -14703.3 -9507.63 2595.62 -1882.99 15132.3
857 11.4211 5.72921 60.6825 -1793.61 -26094.5 -33726.8 -6883.88 -7044.73 -26557.5
877 11.4211 8.5844 60.6828 -7788.39 -12690.3 -514.771 9128.69 944.578 3815.93
897 11.4211 11.4396 60.6829 -17675.9 -19879 -13714.5 17663.5 -13620.3 19210.9
917 11.4211 14.2949 60.6829 -25871.4 -14442.9 -21353.9 -18328.6 22676.5 19920.5
937 11.4212 17.1503 60.6828 -45918.9 -21679.5 -50401.7 30793 47228.1 -29165.1
957 11.4212 20.0056 60.6826 -805.312 -4986.88 -11473.9 -1553.88 2154.38 9714.48
977 11.4212 22.861 60.6823 -4979.72 -13287 -23231.9 9005.63 -11813.1 20238
997 11.4212 25.7164 60.6821 1779.91 -4180.88 -2903.41 107.143 -115.879 6366.68
ITEM: TIMESTEP
251
ITEM: NUMBER OF ATOMS
50
ITEM: BOX BOUNDS xy xz yz pp pp pp
0.0000000000000000e+00 1.4276500000000000e+01 0.0000000000000000e+00
0.0000000000000000e+00 2.8579419500000000e+01 0.0000000000000000e+00
0.0000000000000000e+00 8.7105999999999995e+01 2.6419499999999999e-02
ITEM: ATOMS id x y z c_sz2[1] c_sz2[2] c_sz2[3] c_sz2[4] c_sz2[5] c_sz2[6]
17 -7.09756e-05 0.0188012 60.682 -8145.34 -528.506 -1377.31 -5005.59 7140.25 3926.21
37 -0.00010674 2.87404 60.6822 -6967.16 -3198.86 -4922.99 -5655.98 -6935.36 -3722.23
57 -0.000154053 5.72917 60.6825 -19935.8 -10788.3 1304.31 14389 3263.86 2188.83
77 -0.000176619 8.58433 60.6827 -3838.73 -21848.5 334.238 -8263.39 1765.17 4869.61
97 14.2763 11.4396 60.6829 -1426.45 -1330.64 -38549.6 -328.811 -2501.92 1399.29
117 -0.000132001 14.2948 60.6829 -2117.65 -35405.9 -21525.9 5738.78 5587.8 -22038
137 -9.43984e-05 17.1502 60.6828 -34621.9 -54045.2 -2960.29 42328.6 8701.4 -6098.35
157 14.2765 20.0056 60.6826 -26187.7 -31677 -6420.91 -28363.8 -11713.9 -10684
177 14.2765 22.861 60.6823 -65392.4 -2282.88 -13567.9 14628.6 30616.6 -4806.12
197 -4.59695e-05 25.7164 60.6821 -30776.6 -37151.6 -1768.53 35578.4 -10277.2 12758.8
217 2.85519 28.5718 60.682 399.206 -35822.4 -2936.63 -7786.6 -2003.9 -14241.3
237 2.85514 2.87405 60.6822 -10165.6 -13348.5 -16799.5 -12921.3 16229.2 18403.2
257 2.8551 5.72919 60.6825 -14016 -29735.4 -112.976 20274.1 7047.34 -4357.5
277 2.85506 8.58435 60.6827 -6163.78 -53858.1 -6970.17 -17703.7 -4601.7 -15914.4
297 2.85506 11.4396 60.6828 -4666.37 -44406.5 -10905.5 -13082.4 -4573.59 -17181.9
317 2.8551 14.2949 60.6829 -713.261 -5444.04 -23480 539.018 1446.05 15094.1
337 2.85515 17.1502 60.6828 -3819.23 -55255.9 -1314.95 -12828.9 2747.27 9716.46
357 2.8552 20.0055 60.6826 -24240.9 -5341.68 -835.746 11748.4 4819.62 1203.71
377 2.85524 22.8609 60.6823 -8391.75 940.726 -17113.1 -1588.14 13043.1 4329.83
397 2.85523 25.7164 60.6821 -27234.1 -35958 -3949.5 -33399.7 -12358.8 -13781.2
417 5.71047 28.5718 60.682 -30088.7 -42656.1 786.451 -38448.4 -7111.65 -8836.51
437 5.71042 2.87402 60.6822 -26410.5 -44812.8 -26585.5 -36142.1 -26890.8 -34700.1
457 5.71037 5.72918 60.6824 -10158.9 -13163.3 -835.804 11593.4 7112.66 -2297.32
477 5.71034 8.58437 60.6827 131.865 -21256.2 -191.637 -1042.13 2540.73 7767.21
497 5.71033 11.4396 60.6828 -3072.24 -26502.8 -8077.86 -8778.97 -2565.1 -10280.3
517 5.71037 14.2949 60.6828 -1529.12 -37673 -943.783 8324.5 997.182 9165.55
537 5.71044 17.1502 60.6827 -33095.7 -3614.44 -3593.07 -10664.8 -9095.82 -8.23364
557 5.71049 20.0055 60.6825 -9360.33 -12511.4 -23902.2 -10946.3 16262.5 20785
577 5.71052 22.8609 60.6822 1046.27 -10042.6 1016.11 -326.288 766.822 3364.03
597 5.71052 25.7164 60.682 -22698.8 2217.66 1669.68 -2303.91 -2403.16 998.135
617 8.5658 0.0187474 60.682 -13529.8 -459.292 -13889.7 6132.63 17210 -5375.82
637 8.56576 2.87399 60.6822 -2273.87 -6334.16 2359.68 -5488.38 1442.86 2294.5
657 8.56572 5.72916 60.6825 227.021 -31237.6 -7925.94 3205.55 3586.72 -13251.5
677 8.56569 8.58437 60.6827 -8168.28 -313.016 -687.673 304.784 4136.69 4039.8
697 8.56569 11.4396 60.6828 -14551 -5315.48 -759.47 -8550.21 2675.61 4545.21
717 8.56573 14.2949 60.6828 -6431.45 -14498.5 -16386 9978.72 -8477.67 18783.4
737 8.5658 17.1502 60.6827 -17257.6 -33410.8 -10578.7 -23817.3 14224.4 21648.1
757 8.56584 20.0056 60.6825 -12105.4 -1201.41 -16130.2 4857.2 -13647.9 8089.97
777 8.56585 22.8609 60.6822 -54910.5 -16543.9 -4646.96 31885.9 -17373.8 12347.1
797 8.56584 25.7164 60.682 -11399 -3177.16 -6943.2 8636.04 -10482.7 8541.01
817 11.4211 28.5718 60.682 -5152.17 1979.71 962.119 413.315 -3104.02 1124.28
837 11.4211 2.87399 60.6822 775.354 -14501.6 -9207.34 2614.99 -1321.19 15519.6
857 11.4211 5.72915 60.6825 -1498 -25826.8 -33365 -6836.77 -6465.49 -26081.7
877 11.421 8.58434 60.6827 -7510.64 -12412.4 -176.952 9112.12 1531.06 4299.34
897 11.4211 11.4396 60.6829 -17404.9 -19596.5 -13361.7 17660 -13010.5 19670.1
917 11.4211 14.2949 60.6829 -25574.9 -14117.9 -20991.4 -18296.7 23213.6 20322.8
937 11.4211 17.1502 60.6828 -45728.7 -21475.3 -50179.7 30816.5 47717.4 -28771.1
957 11.4212 20.0056 60.6826 -648.856 -4805.6 -11335.2 -1562.86 2641.86 10006.3
977 11.4212 22.8609 60.6823 -4865.79 -13211.8 -23138.4 8954.33 -11275.3 20512.9
997 11.4212 25.7164 60.6821 1854.46 -4169.55 -2779.59 72.8376 406.329 6663.36
