Generated by pymatgen.io.lammps.data.LammpsData

1999  atoms

   1  atom types

0.000000 14.276500  xlo xhi
0.000000 28.553000  ylo yhi
0.000000 87.106000  zlo zhi
0.000000 0.000000 0.026419  xy xz yz

Masses

1  55.847

Atoms

1    -2  1 14.276500 28.557524 14.985007
2    -2  1 14.276500 28.558391 17.855186
3    -2  1 14.276500 28.559252 20.712499
4    -2  1 14.276500 28.560113 23.567966
5    -2  1  0.000091 28.560757 26.423450
6    -2  1  0.000262 28.561253 29.278925
7    -2  1  0.000414 28.561944 32.134256
8     0  1  0.000517 28.562875 34.989312
9     0  1  0.000473 28.563885 37.844054
10    0  1  0.000225 28.564981 40.698757
11    0  1 14.276490 28.566175 43.553411
12    0  1 14.276247  0.014484 46.408029
13    0  1 14.276057  0.015857 49.262534
14    0  1 14.276051  0.017178 52.116948
15   -2  1 14.276186  0.018313 54.971325
16   -2  1 14.276299  0.018744 57.826415
17   -2  1 14.276429  0.018801 60.682022
18   -2  1 14.276500 28.572251 63.537549
19   -2  1 14.276500 28.573100 66.392636
20   -2  1 14.276500 28.573950 69.234530
21   -2  1 14.276500  2.859789 14.985006
22   -2  1 14.276500  2.860653 17.855172
23   -2  1 14.276500  2.861505 20.712469
24   -2  1 14.276500  2.862358 23.567903
25   -2  1  0.000092  2.863058 26.423323
26   -2  1  0.000270  2.863695 29.278662
27   -2  1  0.000440  2.864566 32.133908
28    0  1  0.000582  2.865784 34.989177
29    0  1  0.000623  2.867241 37.844424
30    0  1 14.276114  2.868553 40.699310
31    0  1 14.275711  2.869674 43.553576
32    0  1 14.275307  2.871098 46.407841
33    0  1 14.275030  2.872639 49.261858
34    0  1 14.275282  2.873948 52.115862
35   -2  1 14.275982  2.874781 54.970060
36   -2  1 14.276180  2.874152 57.826261
37   -2  1 14.276393  2.874038 60.682192
38   -2  1  0.000000  2.874520 63.537681
39   -2  1 14.276500  2.875342 66.392724
40   -2  1 14.276500  2.876173 69.234588
41   -2  1 14.276500  5.715075 14.985003
42   -2  1 14.276500  5.715939 17.855150
43   -2  1 14.276500  5.716789 20.712419
44   -2  1 14.276500  5.717644 23.567806
45   -2  1  0.000106  5.718409 26.423152
46   -2  1  0.000323  5.719154 29.278408
47   -2  1  0.000595  5.720077 32.133617
48    0  1  0.001057  5.721385 34.989062
49    0  1  0.001574  5.724020 37.845659
50    0  1 14.273824  5.727233 40.701929
51    0  1 14.273599  5.727482 43.553674
52    0  1 14.272586  5.728933 46.407065
53    0  1 14.271962  5.730387 49.260150
54    0  1 14.272407  5.731706 52.112626
55   -2  1 14.275231  5.729256 54.970137
56   -2  1 14.275970  5.728896 57.826652
57   -2  1 14.276346  5.729167 60.682485
58   -2  1 14.276500  5.729813 63.537873
59   -2  1 14.276500  5.730627 66.392860
60   -2  1  0.000000  5.731447 69.234682
61   -2  1 14.276500  8.570388 14.984999
62   -2  1 14.276500  8.571254 17.855126
63   -2  1 14.276500  8.572109 20.712368
64   -2  1 14.276500  8.572970 23.567715
65   -2  1  0.000123  8.573780 26.423010
66   -2  1  0.000382  8.574584 29.278246
67   -2  1  0.000726  8.575496 32.133491
68    0  1  0.001325  8.576606 34.989011
69    0  1  0.002209  8.577966 37.845300
70    0  1  0.001030  8.578629 40.700295
71    0  1 14.274434  8.580603 43.553924
72    0  1 14.272980  8.582190 46.406256
73    0  1 14.272258  8.582093 49.261670
74    0  1 14.271882  8.584459 52.113096
75   -2  1 14.274891  8.583577 54.970580
76   -2  1 14.275862  8.583715 57.827070
77   -2  1 14.276323  8.584333 60.682738
78   -2  1 14.276500  8.585128 63.538042
79   -2  1 14.276500  8.585953 66.392989
80   -2  1 14.276500  8.586779 69.234776
81   -2  1 14.276500 11.425723 14.984996
82   -2  1 14.276500 11.426592 17.855110
83   -2  1 14.276500 11.427454 20.712337
84   -2  1 14.276500 11.428320 23.567662
85   -2  1  0.000139 11.429147 26.422934
86   -2  1  0.000435 11.429954 29.278198
87   -2  1  0.000834 11.430805 32.133541
88    0  1  0.001531 11.431728 34.989256
89    0  1  0.002645 11.432636 37.845771
90    0  1  0.001896 11.432779 40.700205
91    0  1  0.000858 11.432647 43.552400
92    0  1  0.001733 11.434714 46.408496
93    0  1 14.272890 11.437810 49.260705
94    0  1 14.272410 11.437866 52.113644
95   -2  1 14.275063 11.437965 54.971160
96   -2  1 14.275916 11.438675 57.827410
97   -2  1 14.276338 11.439560 60.682893
98   -2  1 14.276500 11.440456 63.538137
99   -2  1 14.276500 11.441307 66.393066
100  -2  1  0.000000 11.442154 69.234835
101  -2  1 14.276500 14.281067 14.984996
102  -2  1 14.276500 14.281938 17.855110
103  -2  1 14.276500 14.282810 20.712337
104  -2  1 14.276500 14.283678 23.567662
105  -2  1  0.000149 14.284493 26.422940
106  -2  1  0.000466 14.285245 29.278267
107  -2  1  0.000894 14.285962 32.133750
108   0  1  0.001629 14.286607 34.989704
109   0  1  0.002870 14.287036 37.846499
110   0  1  0.003112 14.287006 40.700873
111   0  1  0.003924 14.290949 43.551728
112   0  1  0.000763 14.291135 46.409700
113   0  1 14.274251 14.290488 49.261398
114   0  1 14.273327 14.291635 52.114142
115  -2  1 14.275360 14.292671 54.971548
116  -2  1 14.276030 14.293817 57.827579
117  -2  1 14.276368 14.294846 60.682920
118  -2  1 14.276500 14.295788 63.538137
119  -2  1 14.276500 14.296669 66.393066
120  -2  1 14.276500 14.297544 69.234835
121  -2  1 14.276500 17.136402 14.984999
122  -2  1 14.276500 17.137276 17.855126
123  -2  1 14.276500 17.138157 20.712368
124  -2  1 14.276500 17.139028 23.567715
125  -2  1  0.000147 17.139805 26.423029
126  -2  1  0.000458 17.140442 29.278448
127  -2  1  0.000857 17.140936 32.134089
128   0  1  0.001498 17.141141 34.990258
129   0  1  0.002570 17.140905 37.847165
130   0  1  0.002579 17.140651 40.701502
131   0  1  0.003019 17.142128 43.554826
132   0  1  0.001708 17.143676 46.408702
133   0  1  0.000754 17.144503 49.262457
134   0  1 14.273464 17.143828 52.113401
135  -2  1 14.275675 17.147464 54.971573
136  -2  1 14.276174 17.149099 57.827543
137  -2  1 14.276406 17.150180 60.682816
138  -2  1 14.276500 17.151116 63.538042
139  -2  1 14.276500 17.152023 66.392989
140  -2  1 14.276500 17.152919 69.234776
141  -2  1 14.276500 19.991715 14.985003
142  -2  1 14.276500 19.992591 17.855150
143  -2  1 14.276500 19.993477 20.712419
144  -2  1 14.276500 19.994354 23.567806
145  -2  1  0.000135 19.995075 26.423182
146  -2  1  0.000407 19.995563 29.278709
147  -2  1  0.000705 19.995790 32.134483
148   0  1  0.001017 19.995426 34.990790
149   0  1  0.001303 19.993698 37.847940
150   0  1  0.002487 19.995286 40.700427
151   0  1  0.002687 19.996819 43.553960
152   0  1  0.002362 19.998472 46.407972
153   0  1  0.001838 19.999929 49.262185
154   0  1  0.001131 20.000619 52.115589
155  -2  1  0.000119 20.002973 54.971737
156  -2  1 14.276390 20.004540 57.827352
157  -2  1 14.276450 20.005554 60.682597
158  -2  1 14.276500 20.006431 63.537873
159  -2  1 14.276500 20.007349 66.392860
160  -2  1  0.000000 20.008251 69.234682
161  -2  1 14.276500 22.847001 14.985006
162  -2  1 14.276500 22.847877 17.855172
163  -2  1 14.276500 22.848761 20.712469
164  -2  1 14.276500 22.849640 23.567903
165  -2  1  0.000117 22.850305 26.423352
166  -2  1  0.000349 22.850678 29.278960
167  -2  1  0.000586 22.850807 32.134718
168   0  1  0.000820 22.850679 34.990514
169   0  1  0.000971 22.851127 37.845452
170   0  1  0.001355 22.852468 40.699405
171   0  1  0.001369 22.853921 43.553566
172   0  1  0.001158 22.855363 46.408004
173   0  1  0.000863 22.856694 49.262588
174   0  1  0.000541 22.857816 52.117158
175  -2  1  0.000039 22.858941 54.971999
176  -2  1 14.276441 22.860078 57.827077
177  -2  1 14.276468 22.860951 60.682313
178  -2  1 14.276500 22.861724 63.537681
179  -2  1 14.276500 22.862634 66.392724
180  -2  1 14.276500 22.863525 69.234588
181  -2  1 14.276500 25.702266 14.985007
182  -2  1 14.276500 25.703139 17.855186
183  -2  1 14.276500 25.704014 20.712499
184  -2  1 14.276500 25.704885 23.567966
185  -2  1  0.000101 25.705518 26.423463
186  -2  1  0.000295 25.705895 29.279055
187  -2  1  0.000478 25.706248 32.134587
188   0  1  0.000621 25.706786 34.989737
189   0  1  0.000671 25.707718 37.844390
190   0  1  0.000677 25.708918 40.698871
191   0  1  0.000556 25.710202 43.553417
192   0  1  0.000354 25.711503 46.408054
193   0  1  0.000146 25.712782 49.262710
194   0  1 14.276493 25.713984 52.117332
195  -2  1 14.276375 25.715045 54.971947
196  -2  1 14.276384 25.715876 57.826805
197  -2  1 14.276454 25.716399 60.682078
198  -2  1 14.276500 25.716993 63.537549
199  -2  1 14.276500 25.717876 66.392636
200  -2  1 14.276500 25.718748 69.234530
201  -2  1  2.855299 28.557524 14.985007
202  -2  1  2.855300 28.558391 17.855185
203  -2  1  2.855302 28.559252 20.712499
204  -2  1  2.855305 28.560113 23.567968
205  -2  1  2.855403 28.560757 26.423459
206  -2  1  2.855565 28.561252 29.278934
207  -2  1  2.855661 28.561949 32.134261
208   0  1  2.855649 28.562913 34.989339
209   0  1  2.855454 28.563999 37.844134
210   0  1  2.855195 28.565048 40.698696
211   0  1  2.854951  0.013296 43.553395
212   0  1  2.854725  0.014612 46.408055
213   0  1  2.854624  0.015951 49.262565
214   0  1  2.854714  0.017284 52.116855
215  -2  1  2.854806  0.018331 54.971321
216  -2  1  2.854970  0.018755 57.826403
217  -2  1  2.855189  0.018805 60.682009
218  -2  1  2.855304 28.572251 63.537540
219  -2  1  2.855305 28.573100 66.392634
220  -2  1  2.855302 28.573950 69.234530
221  -2  1  2.855299  2.859789 14.985005
222  -2  1  2.855300  2.860653 17.855172
223  -2  1  2.855302  2.861505 20.712468
224  -2  1  2.855305  2.862358 23.567905
225  -2  1  2.855405  2.863055 26.423331
226  -2  1  2.855569  2.863682 29.278666
227  -2  1  2.855640  2.864529 32.133899
228   0  1  2.855487  2.865732 34.989201
229   0  1  2.854894  2.867215 37.844555
230   0  1  2.854346  2.867936 40.698793
231   0  1  2.853990  2.869249 43.553516
232   0  1  2.853716  2.870781 46.408096
233   0  1  2.853781  2.872391 49.262273
234   0  1  2.854507  2.874202 52.115530
235  -2  1  2.854435  2.874770 54.970069
236  -2  1  2.854815  2.874163 57.826247
237  -2  1  2.855144  2.874047 60.682176
238  -2  1  2.855304  2.874520 63.537671
239  -2  1  2.855305  2.875342 66.392721
240  -2  1  2.855302  2.876173 69.234588
241  -2  1  2.855299  5.715075 14.985002
242  -2  1  2.855300  5.715939 17.855149
243  -2  1  2.855302  5.716789 20.712418
244  -2  1  2.855306  5.717644 23.567809
245  -2  1  2.855418  5.718406 26.423161
246  -2  1  2.855607  5.719135 29.278408
247  -2  1  2.855707  5.720005 32.133589
248   0  1  2.855602  5.721101 34.988943
249   0  1  2.855156  5.722586 37.844764
250   0  1  2.855335  5.724175 40.700094
251   0  1  2.854454  5.724644 43.553599
252   0  1  2.853972  5.726515 46.408245
253   0  1  2.853977  5.728473 49.262466
254   0  1  2.856867  5.732114 52.112213
255  -2  1  2.854447  5.729587 54.969879
256  -2  1  2.854654  5.729002 57.826555
257  -2  1  2.855096  5.729192 60.682454
258  -2  1  2.855304  5.729813 63.537861
259  -2  1  2.855306  5.730627 66.392856
260  -2  1  2.855303  5.731447 69.234682
261  -2  1  2.855299  8.570388 14.984998
262  -2  1  2.855300  8.571254 17.855125
263  -2  1  2.855303  8.572109 20.712368
264  -2  1  2.855306  8.572970 23.567718
265  -2  1  2.855437  8.573777 26.423018
266  -2  1  2.855668  8.574568 29.278236
267  -2  1  2.855845  8.575440 32.133417
268   0  1  2.855988  8.576475 34.988815
269   0  1  2.856864  8.578314 37.845361
270   0  1  2.864753  8.586402 40.707849
271   0  1  2.856209  8.578703 43.550294
272   0  1  2.854528  8.581021 46.406509
273   0  1  2.854181  8.582581 49.261181
274   0  1  2.853893  8.582141 52.115007
275  -2  1  2.853626  8.583164 54.970823
276  -2  1  2.854443  8.583698 57.826997
277  -2  1  2.855057  8.584345 60.682698
278  -2  1  2.855304  8.585128 63.538029
279  -2  1  2.855306  8.585954 66.392986
280  -2  1  2.855303  8.586779 69.234776
281  -2  1  2.855299 11.425723 14.984995
282  -2  1  2.855300 11.426592 17.855109
283  -2  1  2.855303 11.427454 20.712336
284  -2  1  2.855307 11.428320 23.567665
285  -2  1  2.855452 11.429144 26.422942
286  -2  1  2.855721 11.429941 29.278181
287  -2  1  2.855961 11.430756 32.133431
288   0  1  2.856250 11.431575 34.988939
289   0  1  2.857381 11.432314 37.845418
290   0  1  2.862573 11.432635 40.704920
291   0  1  2.858943 11.431542 43.553656
292   0  1  2.847532 11.430497 46.412718
293   0  1  2.854435 11.437560 49.261873
294   0  1  2.853789 11.436685 52.116062
295  -2  1  2.853452 11.437713 54.971473
296  -2  1  2.854409 11.438660 57.827310
297  -2  1  2.855062 11.439567 60.682840
298  -2  1  2.855304 11.440456 63.538124
299  -2  1  2.855307 11.441307 66.393062
300  -2  1  2.855303 11.442154 69.234835
301  -2  1  2.855299 14.281067 14.984995
302  -2  1  2.855300 14.281938 17.855109
303  -2  1  2.855303 14.282810 20.712336
304  -2  1  2.855307 14.283678 23.567665
305  -2  1  2.855461 14.284491 26.422949
306  -2  1  2.855752 14.285237 29.278250
307  -2  1  2.856039 14.285928 32.133633
308   0  1  2.856464 14.286439 34.989354
309   0  1  2.858004 14.286201 37.846113
310   0  1  2.864252 14.284031 40.706311
311   0  1  2.858057 14.291354 43.551325
312   0  1  2.858853 14.289880 46.410806
313   0  1  2.856024 14.294120 49.263297
314   0  1  2.854175 14.291712 52.116981
315  -2  1  2.853624 14.292732 54.971968
316  -2  1  2.854511 14.293838 57.827486
317  -2  1  2.855099 14.294850 60.682865
318  -2  1  2.855304 14.295788 63.538124
319  -2  1  2.855307 14.296669 66.393062
320  -2  1  2.855303 14.297544 69.234835
321  -2  1  2.855299 17.136402 14.984998
322  -2  1  2.855300 17.137276 17.855125
323  -2  1  2.855303 17.138157 20.712368
324  -2  1  2.855306 17.139028 23.567718
325  -2  1  2.855458 17.139806 26.423038
326  -2  1  2.855745 17.140450 29.278435
327  -2  1  2.856037 17.140963 32.133984
328   0  1  2.856474 17.141198 34.989892
329   0  1  2.857871 17.140632 37.846502
330   0  1  2.865072 17.135001 40.707152
331   0  1  2.864159 17.136695 43.557802
332   0  1  2.862382 17.138970 46.408847
333   0  1  2.864476 17.136954 49.254687
334   0  1  2.854969 17.145667 52.116462
335  -2  1  2.853897 17.147977 54.972184
336  -2  1  2.854669 17.149148 57.827499
337  -2  1  2.855149 17.150176 60.682770
338  -2  1  2.855304 17.151116 63.538029
339  -2  1  2.855306 17.152022 66.392986
340  -2  1  2.855303 17.152919 69.234776
341  -2  1  2.855299 19.991715 14.985002
342  -2  1  2.855300 19.992591 17.855149
343  -2  1  2.855302 19.993477 20.712418
344  -2  1  2.855306 19.994354 23.567809
345  -2  1  2.855444 19.995079 26.423190
346  -2  1  2.855702 19.995584 29.278702
347  -2  1  2.855959 19.995866 32.134410
348   0  1  2.856360 19.995705 34.990494
349   0  1  2.857304 19.994819 37.846823
350   0  1  2.857793 19.995950 40.700700
351   0  1  2.857831 19.997207 43.554794
352   0  1  2.857111 19.998827 46.408292
353   0  1  2.856505 19.999868 49.261834
354   0  1  2.854718 20.001516 52.117019
355  -2  1  2.854388 20.002837 54.971756
356  -2  1  2.854891 20.004440 57.827252
357  -2  1  2.855203 20.005525 60.682555
358  -2  1  2.855304 20.006431 63.537861
359  -2  1  2.855306 20.007349 66.392856
360  -2  1  2.855303 20.008251 69.234682
361  -2  1  2.855299 22.847001 14.985005
362  -2  1  2.855300 22.847877 17.855172
363  -2  1  2.855302 22.848761 20.712468
364  -2  1  2.855305 22.849640 23.567905
365  -2  1  2.855424 22.850309 26.423361
366  -2  1  2.855636 22.850696 29.278961
367  -2  1  2.855803 22.850860 32.134684
368   0  1  2.855940 22.850800 34.990416
369   0  1  2.856305 22.851446 37.845186
370   0  1  2.856323 22.852859 40.699350
371   0  1  2.856199 22.854298 43.553731
372   0  1  2.855873 22.855705 46.408152
373   0  1  2.855521 22.856909 49.262710
374   0  1  2.855077 22.857947 52.117429
375  -2  1  2.854932 22.858922 54.972039
376  -2  1  2.855088 22.860040 57.827043
377  -2  1  2.855242 22.860932 60.682288
378  -2  1  2.855304 22.861724 63.537671
379  -2  1  2.855305 22.862634 66.392721
380  -2  1  2.855302 22.863525 69.234588
381  -2  1  2.855299 25.702266 14.985007
382  -2  1  2.855300 25.703139 17.855185
383  -2  1  2.855302 25.704014 20.712499
384  -2  1  2.855305 25.704885 23.567968
385  -2  1  2.855410 25.705520 26.423472
386  -2  1  2.855590 25.705904 29.279062
387  -2  1  2.855719 25.706280 32.134581
388   0  1  2.855795 25.706860 34.989716
389   0  1  2.855848 25.707854 37.844352
390   0  1  2.855773 25.709094 40.698848
391   0  1  2.855612 25.710402 43.553444
392   0  1  2.855390 25.711693 46.408093
393   0  1  2.855188 25.712917 49.262749
394   0  1  2.855042 25.714058 52.117366
395  -2  1  2.855008 25.715075 54.971964
396  -2  1  2.855089 25.715878 57.826794
397  -2  1  2.855231 25.716394 60.682064
398  -2  1  2.855304 25.716993 63.537540
399  -2  1  2.855305 25.717876 66.392634
400  -2  1  2.855302 25.718748 69.234530
401  -2  1  5.710600 28.557524 14.985006
402  -2  1  5.710600 28.558391 17.855184
403  -2  1  5.710601 28.559252 20.712499
404  -2  1  5.710603 28.560113 23.567972
405  -2  1  5.710708 28.560761 26.423476
406  -2  1  5.710886 28.561268 29.278978
407  -2  1  5.710973 28.561985 32.134320
408   0  1  5.710936 28.562963 34.989366
409   0  1  5.710853 28.563973 37.844016
410   0  1  5.710667 28.564997 40.698563
411   0  1  5.710361 28.566142 43.553228
412   0  1  5.710121  0.014372 46.407949
413   0  1  5.710044  0.015651 49.262533
414   0  1  5.710051  0.017036 52.116953
415  -2  1  5.710089  0.018147 54.971435
416  -2  1  5.710220  0.018661 57.826435
417  -2  1  5.710472  0.018775 60.681989
418  -2  1  5.710603 28.572251 63.537524
419  -2  1  5.710603 28.573100 66.392630
420  -2  1  5.710601 28.573950 69.234531
421  -2  1  5.710600  2.859789 14.985004
422  -2  1  5.710600  2.860653 17.855170
423  -2  1  5.710601  2.861505 20.712468
424  -2  1  5.710603  2.862358 23.567910
425  -2  1  5.710711  2.863059 26.423351
426  -2  1  5.710888  2.863692 29.278720
427  -2  1  5.710947  2.864527 32.133967
428   0  1  5.710831  2.865605 34.989133
429   0  1  5.710668  2.866723 37.844038
430   0  1  5.710496  2.867380 40.698371
431   0  1  5.709815  2.868137 43.552855
432   0  1  5.709583  2.869662 46.407869
433   0  1  5.709835  2.871380 49.262120
434   0  1  5.710004  2.873414 52.115942
435  -2  1  5.709965  2.874243 54.970568
436  -2  1  5.710088  2.874020 57.826366
437  -2  1  5.710419  2.874021 60.682162
438  -2  1  5.710602  2.874519 63.537655
439  -2  1  5.710603  2.875342 66.392716
440  -2  1  5.710602  2.876173 69.234588
441  -2  1  5.710600  5.715075 14.985001
442  -2  1  5.710600  5.715939 17.855148
443  -2  1  5.710601  5.716789 20.712418
444  -2  1  5.710604  5.717644 23.567814
445  -2  1  5.710725  5.718406 26.423183
446  -2  1  5.710924  5.719128 29.278470
447  -2  1  5.710987  5.719951 32.133652
448   0  1  5.710810  5.720879 34.988808
449   0  1  5.710505  5.722066 37.844090
450   0  1  5.710691  5.722734 40.698713
451   0  1  5.708413  5.720917 43.551191
452   0  1  5.708916  5.724377 46.408844
453   0  1  5.711104  5.728656 49.260473
454   0  1  5.710460  5.730792 52.113531
455  -2  1  5.709934  5.729170 54.970640
456  -2  1  5.709971  5.728907 57.826735
457  -2  1  5.710374  5.729181 60.682441
458  -2  1  5.710603  5.729812 63.537843
459  -2  1  5.710604  5.730627 66.392851
460  -2  1  5.710602  5.731447 69.234682
461  -2  1  5.710600  8.570388 14.984997
462  -2  1  5.710600  8.571254 17.855123
463  -2  1  5.710602  8.572109 20.712367
464  -2  1  5.710604  8.572970 23.567724
465  -2  1  5.710745  8.573773 26.423043
466  -2  1  5.710991  8.574542 29.278300
467  -2  1  5.711120  8.575331 32.133459
468   0  1  5.711029  8.576070 34.988516
469   0  1  5.710515  8.576705 37.843581
470   0  1  5.707956  8.577336 40.699210
471   0  1  5.710054  8.575168 43.552365
472   0  1  5.706450  8.581228 46.418574
473   0  1  5.731842  8.606438 49.237311
474   0  1  5.711015  8.584136 52.114819
475  -2  1  5.709664  8.583322 54.971805
476  -2  1  5.709833  8.583754 57.827227
477  -2  1  5.710337  8.584368 60.682683
478  -2  1  5.710603  8.585127 63.538009
479  -2  1  5.710604  8.585954 66.392980
480  -2  1  5.710602  8.586779 69.234777
481  -2  1  5.710600 11.425723 14.984994
482  -2  1  5.710600 11.426592 17.855108
483  -2  1  5.710602 11.427454 20.712336
484  -2  1  5.710604 11.428320 23.567671
485  -2  1  5.710763 11.429137 26.422966
486  -2  1  5.711055 11.429908 29.278233
487  -2  1  5.711274 11.430654 32.133419
488   0  1  5.711419 11.431317 34.988446
489   0  1  5.711596 11.431732 37.843287
490   0  1  5.711954 11.430479 40.701277
491   0  1  5.797519 11.489331 43.639667
492   0  1  5.645791 11.444024 46.399198
493   0  1  5.706356 11.425496 49.261669
494   0  1  5.708730 11.436091 52.118193
495  -2  1  5.709301 11.437948 54.972564
496  -2  1  5.709765 11.438797 57.827494
497  -2  1  5.710331 11.439610 60.682807
498  -2  1  5.710602 11.440456 63.538102
499  -2  1  5.710604 11.441307 66.393056
500  -2  1  5.710602 11.442154 69.234835
501  -2  1  5.710600 14.281067 14.984994
502  -2  1  5.710600 14.281938 17.855108
503  -2  1  5.710602 14.282810 20.712336
504  -2  1  5.710604 14.283678 23.567671
505  -2  1  5.710770 14.284485 26.422971
506  -2  1  5.711082 14.285210 29.278289
507  -2  1  5.711343 14.285868 32.133583
508   0  1  5.711579 14.286417 34.988826
509   0  1  5.711740 14.287054 37.844088
510   0  1  5.709750 14.289929 40.700086
511   0  1  5.756449 14.244176 43.598534
512   0  1  5.797436 14.203869 46.353022
513   0  1  5.709849 14.292068 49.266850
514   0  1  5.708135 14.294121 52.120699
515  -2  1  5.709434 14.293399 54.973054
516  -2  1  5.709885 14.294028 57.827600
517  -2  1  5.710375 14.294895 60.682815
518  -2  1  5.710602 14.295788 63.538102
519  -2  1  5.710604 14.296669 66.393056
520  -2  1  5.710602 14.297544 69.234835
521  -2  1  5.710600 17.136402 14.984997
522  -2  1  5.710600 17.137276 17.855123
523  -2  1  5.710602 17.138157 20.712367
524  -2  1  5.710604 17.139028 23.567724
525  -2  1  5.710765 17.139802 26.423057
526  -2  1  5.711069 17.140437 29.278463
527  -2  1  5.711345 17.140943 32.133927
528   0  1  5.711712 17.141173 34.989561
529   0  1  5.712759 17.140433 37.846209
530   0  1  5.715789 17.135518 40.706636
531   0  1  5.709654 17.142920 43.551895
532   0  1  5.711773 17.142604 46.411004
533   0  1  5.707683 17.145590 49.263753
534   0  1  5.710329 17.147048 52.117895
535  -2  1  5.710037 17.148404 54.972719
536  -2  1  5.710112 17.149294 57.827523
537  -2  1  5.710442 17.150206 60.682713
538  -2  1  5.710603 17.151117 63.538009
539  -2  1  5.710604 17.152022 66.392980
540  -2  1  5.710602 17.152919 69.234777
541  -2  1  5.710600 19.991715 14.985001
542  -2  1  5.710600 19.992591 17.855148
543  -2  1  5.710601 19.993477 20.712418
544  -2  1  5.710604 19.994354 23.567814
545  -2  1  5.710749 19.995079 26.423207
546  -2  1  5.711024 19.995590 29.278723
547  -2  1  5.711275 19.995910 32.134356
548   0  1  5.711603 19.995863 34.990210
549   0  1  5.712201 19.995193 37.846462
550   0  1  5.712676 19.996256 40.700899
551   0  1  5.711559 19.999248 43.553933
552   0  1  5.711320 20.000971 46.408870
553   0  1  5.710151 20.001660 49.263441
554   0  1  5.710063 20.002199 52.117532
555  -2  1  5.710148 20.003363 54.972232
556  -2  1  5.710261 20.004560 57.827262
557  -2  1  5.710495 20.005538 60.682502
558  -2  1  5.710603 20.006432 63.537843
559  -2  1  5.710604 20.007349 66.392851
560  -2  1  5.710602 20.008251 69.234682
561  -2  1  5.710600 22.847001 14.985004
562  -2  1  5.710600 22.847877 17.855170
563  -2  1  5.710601 22.848761 20.712468
564  -2  1  5.710603 22.849640 23.567910
565  -2  1  5.710730 22.850312 26.423375
566  -2  1  5.710963 22.850717 29.278979
567  -2  1  5.711155 22.850953 32.134640
568   0  1  5.711343 22.851071 34.990191
569   0  1  5.711538 22.851774 37.845041
570   0  1  5.711546 22.853236 40.699369
571   0  1  5.711291 22.854871 43.553736
572   0  1  5.711018 22.856237 46.408392
573   0  1  5.710545 22.857239 49.263104
574   0  1  5.710268 22.858108 52.117645
575  -2  1  5.710249 22.859008 54.972156
576  -2  1  5.710334 22.860015 57.826987
577  -2  1  5.710520 22.860914 60.682237
578  -2  1  5.710602 22.861725 63.537655
579  -2  1  5.710603 22.862634 66.392716
580  -2  1  5.710602 22.863525 69.234588
581  -2  1  5.710600 25.702266 14.985006
582  -2  1  5.710600 25.703139 17.855184
583  -2  1  5.710601 25.704014 20.712499
584  -2  1  5.710603 25.704885 23.567972
585  -2  1  5.710714 25.705524 26.423487
586  -2  1  5.710910 25.705923 29.279094
587  -2  1  5.711041 25.706334 32.134600
588   0  1  5.711126 25.706982 34.989676
589   0  1  5.711154 25.707983 37.844305
590   0  1  5.711071 25.709227 40.698831
591   0  1  5.710885 25.710516 43.553446
592   0  1  5.710664 25.711743 46.408139
593   0  1  5.710438 25.712885 49.262826
594   0  1  5.710291 25.713998 52.117427
595  -2  1  5.710269 25.715010 54.971981
596  -2  1  5.710351 25.715821 57.826763
597  -2  1  5.710518 25.716370 60.682028
598  -2  1  5.710603 25.716993 63.537524
599  -2  1  5.710603 25.717876 66.392630
600  -2  1  5.710601 25.718748 69.234531
601  -2  1  8.565900 28.557524 14.985006
602  -2  1  8.565900 28.558391 17.855184
603  -2  1  8.565899 28.559252 20.712499
604  -2  1  8.565897 28.560113 23.567972
605  -2  1  8.565999 28.560765 26.423478
606  -2  1  8.566198 28.561282 29.278997
607  -2  1  8.566370 28.562005 32.134350
608   0  1  8.566458 28.562928 34.989328
609   0  1  8.566475 28.563894 37.843938
610   0  1  8.566352 28.564874 40.698477
611   0  1  8.566059 28.565934 43.553145
612   0  1  8.565777  0.014078 46.407875
613   0  1  8.565601  0.015399 49.262517
614   0  1  8.565512  0.016817 52.117012
615  -2  1  8.565525  0.017975 54.971529
616  -2  1  8.565638  0.018557 57.826499
617  -2  1  8.565802  0.018747 60.681992
618  -2  1  8.565897 28.572251 63.537524
619  -2  1  8.565897 28.573100 66.392630
620  -2  1  8.565899 28.573950 69.234531
621  -2  1  8.565900  2.859789 14.985004
622  -2  1  8.565900  2.860653 17.855170
623  -2  1  8.565899  2.861505 20.712468
624  -2  1  8.565897  2.862358 23.567910
625  -2  1  8.566002  2.863064 26.423354
626  -2  1  8.566205  2.863711 29.278750
627  -2  1  8.566375  2.864567 32.134021
628   0  1  8.566454  2.865640 34.989101
629   0  1  8.566495  2.866701 37.843857
630   0  1  8.566459  2.867413 40.698203
631   0  1  8.565962  2.868164 43.552729
632   0  1  8.565439  2.869244 46.407580
633   0  1  8.565194  2.871184 49.261972
634   0  1  8.565150  2.873186 52.116026
635  -2  1  8.565275  2.874040 54.970757
636  -2  1  8.565500  2.873902 57.826495
637  -2  1  8.565756  2.873989 60.682178
638  -2  1  8.565898  2.874519 63.537655
639  -2  1  8.565897  2.875342 66.392716
640  -2  1  8.565898  2.876173 69.234588
641  -2  1  8.565900  5.715075 14.985001
642  -2  1  8.565900  5.715939 17.855148
643  -2  1  8.565899  5.716789 20.712418
644  -2  1  8.565896  5.717644 23.567814
645  -2  1  8.566016  5.718409 26.423188
646  -2  1  8.566249  5.719142 29.278509
647  -2  1  8.566449  5.719979 32.133722
648   0  1  8.566487  5.720898 34.988747
649   0  1  8.566356  5.722059 37.843735
650   0  1  8.566794  5.723212 40.698420
651   0  1  8.567017  5.722990 43.551795
652   0  1  8.565389  5.722099 46.407484
653   0  1  8.564027  5.728792 49.259875
654   0  1  8.564563  5.730897 52.113427
655  -2  1  8.565082  5.729084 54.970856
656  -2  1  8.565402  5.728836 57.826902
657  -2  1  8.565718  5.729160 60.682464
658  -2  1  8.565897  5.729812 63.537843
659  -2  1  8.565896  5.730627 66.392851
660  -2  1  8.565898  5.731447 69.234682
661  -2  1  8.565900  8.570388 14.984997
662  -2  1  8.565900  8.571254 17.855123
663  -2  1  8.565898  8.572109 20.712367
664  -2  1  8.565896  8.572970 23.567724
665  -2  1  8.566037  8.573773 26.423049
666  -2  1  8.566322  8.574544 29.278348
667  -2  1  8.566601  8.575334 32.133554
668   0  1  8.566717  8.576053 34.988466
669   0  1  8.566344  8.576612 37.842954
670   0  1  8.565208  8.578397 40.697973
671   0  1  8.576862  8.579911 43.548938
672   0  1  8.567624  8.535267 46.409662
673   0  1  8.557013  8.597406 49.246351
674   0  1  8.563944  8.584736 52.114684
675  -2  1  8.565028  8.583472 54.971989
676  -2  1  8.565355  8.583770 57.827419
677  -2  1  8.565694  8.584367 60.682712
678  -2  1  8.565897  8.585127 63.538009
679  -2  1  8.565896  8.585954 66.392980
680  -2  1  8.565898  8.586779 69.234777
681  -2  1  8.565900 11.425723 14.984994
682  -2  1  8.565900 11.426592 17.855108
683  -2  1  8.565898 11.427454 20.712336
684  -2  1  8.565896 11.428320 23.567671
685  -2  1  8.566056 11.429135 26.422973
686  -2  1  8.566390 11.429902 29.278286
687  -2  1  8.566758 11.430641 32.133542
688   0  1  8.567073 11.431297 34.988511
689   0  1  8.567529 11.431547 37.842590
690   0  1  8.571415 11.428209 40.690208
691   0  1  8.557530 11.442561 43.488187
692   0  1  7.852265 12.148675 45.694401
693   0  1  8.567530 11.434425 49.307588
694   0  1  8.565210 11.437453 52.120463
695  -2  1  8.565164 11.438240 54.972968
696  -2  1  8.565380 11.438876 57.827722
697  -2  1  8.565694 11.439627 60.682844
698  -2  1  8.565898 11.440456 63.538102
699  -2  1  8.565896 11.441307 66.393056
700  -2  1  8.565898 11.442154 69.234835
701  -2  1  8.565900 14.281067 14.984994
702  -2  1  8.565900 14.281938 17.855108
703  -2  1  8.565898 14.282810 20.712336
704  -2  1  8.565896 14.283678 23.567671
705  -2  1  8.566064 14.284481 26.422975
706  -2  1  8.566416 14.285199 29.278329
707  -2  1  8.566809 14.285848 32.133666
708   0  1  8.567135 14.286419 34.988794
709   0  1  8.567428 14.286968 37.843662
710   0  1  8.569281 14.287422 40.701657
711   0  1  8.511146 14.202691 43.640032
712   0  1  8.557379 14.355302 46.399723
713   0  1  8.576677 14.295470 49.262086
714   0  1  8.566745 14.293515 52.118627
715  -2  1  8.565586 14.293528 54.973017
716  -2  1  8.565539 14.294122 57.827756
717  -2  1  8.565735 14.294921 60.682842
718  -2  1  8.565898 14.295788 63.538102
719  -2  1  8.565896 14.296669 66.393056
720  -2  1  8.565898 14.297544 69.234835
721  -2  1  8.565900 17.136402 14.984997
722  -2  1  8.565900 17.137276 17.855123
723  -2  1  8.565898 17.138157 20.712367
724  -2  1  8.565896 17.139028 23.567724
725  -2  1  8.566058 17.139799 26.423060
726  -2  1  8.566396 17.140424 29.278492