ITEM: TIMESTEP
100
ITEM: NUMBER OF ATOMS
50
ITEM: BOX BOUNDS xy xz yz pp pp pp
0.0000000000000000e+00 1.4276500000000000e+01 0.0000000000000000e+00
0.0000000000000000e+00 2.8565143000199761e+01 0.0000000000000000e+00
0.0000000000000000e+00 8.7105999999999995e+01 1.2143000199759304e-02
ITEM: ATOMS id x y z c_sz1[1] c_sz1[2] c_sz1[3] c_sz1[4] c_sz1[5] c_sz1[6]
5 14.2628 28.5731 26.4505 -31626.2 -79570 -133553 160323 75587.6 -61723.6
25 14.2802 2.83527 26.4362 -64933.7 -164404 -79546.7 58048.3 68307.1 35321.5
45 14.2975 5.69839 26.4446 -96402.1 64887.3 -76851.1 -15741.7 -80084 -57806.3
65 14.2962 8.58631 26.4446 -20969.8 -47562.4 -219988 -106528 7684.33 -54461.5
85 14.2497 11.4503 26.4087 -85006.8 -158333 -90629.3 53616.1 -8894.19 63622.8
105 14.2497 14.2929 26.4359 -159037 -76799 -100557 87633.6 12490 -10233.4
125 14.2543 17.1425 26.42 -53339.2 -79662 -19148 21260.6 -65384.9 -53948.8
145 14.2776 19.967 26.4426 89237.3 -23573.6 70912.8 52820.6 -23483 140128
165 14.2842 22.8275 26.4137 -31620.9 57074.4 -11236.5 -2582.08 32775.9 25508.9
185 14.3009 25.7048 26.4046 -83618.2 119814 31511.2 41074.4 6401.74 37540.2
205 2.83894 28.5655 26.4148 68420.4 42470.4 -15073.7 95405.4 -3530.35 40543.7
225 2.85562 2.85156 26.4219 -22823.6 -2893.03 -118040 -74636 66382 30084
245 2.84749 5.73559 26.4006 48576.3 42717.8 -62568.3 59359.2 45223.4 35046.8
265 2.8809 8.57388 26.4022 -176890 -61531.4 -65627.1 -37296.2 -50918.9 37735.4
285 2.88181 11.417 26.4197 17429.1 36542 53649.1 96902.8 19409.8 -159703
305 2.83972 14.2851 26.412 -1486 89227 -6071.38 -81148.4 28995.2 114561
325 2.8677 17.1561 26.4069 67458.1 -53022.8 -54311.3 34752 26216.4 -27573.6
345 2.8424 19.9905 26.4188 -1892.12 75161.3 95076.6 -23.4909 -170.802 124038
365 2.85677 22.8651 26.4416 74578.9 9438.59 -5604.89 20383.8 29949.2 73487.6
385 2.84908 25.675 26.428 -66107.3 -55231.5 -16238.7 -111770 -14928.8 -3836.88
405 5.73032 28.5734 26.4286 218534 142919 246261 -84635.4 65472.8 23116.4
425 5.7185 2.85642 26.4114 92715.4 47033.5 -2152.87 30876 34607.4 -83937.7
445 5.72327 5.72375 26.4138 53800.1 38732.9 81963 -71327.8 -59149.8 41102.1
465 5.6975 8.549 26.4084 -224360 -136829 -74746.2 14197.8 72302.8 -161859
485 5.70728 11.4309 26.4508 -273087 -56554.3 -260017 -12114.7 -627.58 -75406.3
505 5.68382 14.303 26.4383 -64317.9 -92946.4 27067.7 46159.1 67182.9 14179.2
525 5.71765 17.12 26.401 -82983.7 -201508 -124721 6839.87 -33753.6 -115002
545 5.68292 19.9674 26.4047 -236660 -126261 -116767 -113766 -223794 38545.1
565 5.71222 22.8516 26.4216 -1765.36 59251.8 -48386.2 -23625 -10306.6 26255.1
585 5.70005 25.7131 26.41 -37631.2 2467.15 -91875.2 1315.41 -3612.01 94481.1
605 8.57202 28.5395 26.4012 13474.6 59932.6 74243.2 49459.6 -23335.3 -56696.6
625 8.5901 2.85721 26.4304 -108267 35695.7 -67663.9 5369.18 48742.2 -7696.74
645 8.54704 5.72045 26.406 -128974 -145769 -197170 -38152.8 -68141.3 -32159.1
665 8.5443 8.55269 26.435 -145853 -198717 -94099.5 33316.4 8308.72 57528
685 8.54916 11.4021 26.4305 -80627.3 -127384 -114077 -6902.08 128751 12445.4
705 8.54716 14.2737 26.4336 92379.6 111413 -15190.9 -138908 43135.1 -42390.7
725 8.56536 17.1444 26.4472 37416.9 -20555.1 -8379.67 -42826.3 20675.5 -11351.9
745 8.54636 19.9717 26.4449 -94451.9 -79444.3 -40977.6 -38653.2 80426.5 75316.1
765 8.5707 22.8634 26.4165 119449 71283.6 89925.2 28422.7 4851.58 105763
785 8.55381 25.69 26.4086 3520.34 -103146 -79063.1 8448.32 -75861.5 -104217
805 11.4086 28.5822 26.4459 -83123.3 38279.9 -85150.4 134156 -20897.5 -114698
825 11.4308 2.88647 26.3984 -158637 -252345 -153226 -27775.9 91915.3 21076
845 11.4364 5.71709 26.4179 59804.1 -72159.1 -3771.06 -108762 109604 73439.2
865 11.3989 8.57853 26.3987 84137 -9641.24 65118.9 56319.9 -166904 124167
885 11.4338 11.4007 26.4272 51056.9 42859.8 48243.1 124488 -10417.9 -30160.5
905 11.4294 14.2899 26.4083 35499.7 154909 29910.2 -11366.2 46212.3 -104206
925 11.4332 17.1502 26.431 -142790 -181228 -152093 -45572.6 -56467.4 -150631
945 11.4184 19.9823 26.4327 -50943.8 -163555 -68893.6 26943.4 90844 117103
965 11.4391 22.8524 26.4112 -112851 -135496 -184939 -16709.7 32659.2 76834.2
985 11.4295 25.6766 26.4508 -20980.2 -124118 -261714 -124112 -12813.3 129613
ITEM: TIMESTEP
200
ITEM: NUMBER OF ATOMS
50
ITEM: BOX BOUNDS xy xz yz pp pp pp
0.0000000000000000e+00 1.4276500000000000e+01 0.0000000000000000e+00
0.0000000000000000e+00 2.8565143000199761e+01 0.0000000000000000e+00
0.0000000000000000e+00 8.7105999999999995e+01 1.2143000199759304e-02
ITEM: ATOMS id x y z c_sz1[1] c_sz1[2] c_sz1[3] c_sz1[4] c_sz1[5] c_sz1[6]
5 14.2765 0.00366311 26.4234 -9731.32 -10915.2 -35089.1 10281.8 19018.4 -17840.5
25 5.11408e-05 2.85893 26.4233 -5449.17 -28899.2 -5835.69 12349.3 -5168.94 14603.1
45 4.86968e-05 5.71423 26.4231 -22694.1 -30251.8 -22880.1 25996.5 -22172.9 27743.7
65 2.36638e-05 8.56955 26.423 -31260.2 -15618.8 -6799.06 -22096.8 -13903.7 -8299.19
85 14.2765 11.4249 26.4229 -20684.6 -39216.3 -15200.8 28385.2 -17154.1 26238.4
105 14.2765 14.2802 26.4229 -46240.1 -13344.2 -6409.43 24868.6 17164.8 -6726.5
125 14.2765 17.1356 26.423 -26290.9 -12.5415 -259.367 1707.2 -2152.46 2840.86
145 4.46507e-05 19.9909 26.4231 27.5021 -18971.6 -37604.3 -1522.67 2564.41 29571.3
165 4.39084e-05 22.8462 26.4233 -6005.63 -13413.6 -3210 9248.75 5307.58 -4692.52
185 4.71215e-05 25.7014 26.4234 -21449.2 -1278.82 -10703 -5180.76 16079.8 5866.19
205 2.85535 0.0036683 26.4234 -9018.83 -2897.14 -3216.49 4878.18 -5255.25 4869.91
225 2.85535 2.85892 26.4233 -2371.4 -528.705 -2386.5 756.26 2760.29 747.445
245 2.85534 5.71422 26.4231 -235.285 -17876.7 -20973.2 393.958 -32.5685 20724.5
265 2.85533 8.56954 26.423 -16719.3 -1986.33 -22658.4 -5556.27 19459.8 8195.02
285 2.85532 11.4249 26.4229 -28490 -15228.3 -428.596 20701.1 443.995 1920.85
305 2.85534 14.2802 26.4229 -12265.6 -10186.4 -5317.09 11154.4 -7415.21 9485.93
325 2.85534 17.1356 26.423 -6347.98 -11659.7 -14370.2 -8550.43 9862.16 15591.7
345 2.85535 19.9909 26.4231 -10762.4 -6053.84 164.945 8196.22 1666.34 1809.48
365 2.85535 22.8462 26.4233 -930.667 -32256.4 -26896.7 -6032.81 -5039.88 -27270
385 2.85535 25.7014 26.4234 -1840.07 -32451.1 -1177.75 -7867.35 2363.14 9858.47
405 5.71064 0.00365859 26.4234 -29270.4 -21012.7 -19616.7 -24652 -23865.9 -18732.8
425 5.71064 2.85891 26.4233 -6793.27 -2184.41 -4528.17 3641.41 6074.33 -1544.92
445 5.71065 5.71422 26.4231 -1511.77 -4250.94 -774.242 -2455.2 1335.69 3216.17
465 5.71063 8.56954 26.423 -2052.25 -38712.5 -16211.9 -8414.23 -5041.17 -22974.3
485 5.71063 11.4249 26.4229 -1335.3 -91.8714 -13719.5 293.614 4205.88 1058.25
505 5.71064 14.2802 26.4229 -45193.3 -37925.1 -19194.8 41406.9 29568.3 -24527.7
525 5.71063 17.1356 26.423 -472.575 -19784.6 -29558.8 2911.53 3927.23 -21578.1
545 5.71065 19.9909 26.4232 -78575.6 -12435.9 -27966.9 -31392.1 -46763.2 -16160.5
565 5.71064 22.8462 26.4233 136.945 -1690.6 -371.23 -372.741 675.527 3917.78
585 5.71065 25.7014 26.4234 -4814.86 -16088.7 -11043.7 8928.35 -7218.82 15972.9
605 8.56595 28.5567 26.4234 -608.484 -15869.9 -9958.11 3117.17 3018.53 -11058.8
625 8.56595 2.85892 26.4233 -43498.3 -1064.5 -652.352 6270.78 -5574.12 2438.8
645 8.56595 5.71422 26.4231 -14844.6 -197.478 -30381.9 1322.43 -20714.4 3505.52
665 8.56593 8.56955 26.423 -34193.8 -13194.2 -2938.7 -21165.3 9864.42 7786.8
685 8.56593 11.4249 26.4229 -1886.71 -34481.8 -309.522 -7721.17 593.699 3266.6
705 8.56594 14.2802 26.4229 -16820.7 -5539.14 -6367.87 -9721.37 10542.1 8281.9
725 8.56594 17.1356 26.423 -126.804 -2559.56 -36860.8 -720.204 -2287.04 -7422.22
745 8.56593 19.9909 26.4232 -21354 -11022.2 -18363.4 -15452 20365.1 17147.3
765 8.56594 22.8462 26.4233 -1387.62 -20451.3 691.194 -5777.37 527.633 3108.22
785 8.56594 25.7014 26.4234 -12303.5 -13581.4 -11999.1 -12993.2 -12171.2 -10946
805 11.4212 0.00365699 26.4234 -16324.3 -26490.4 -22386.1 20811 19792.2 -22870.9
825 11.4212 2.85892 26.4233 -12020.8 -27076.3 -42599.3 -17948.4 23030.1 35525.5
845 11.4212 5.71423 26.4231 -22787.2 -5843.28 -1724.72 -11514.7 6379.02 4677.7
865 11.4212 8.56956 26.423 -37679.9 -9003.12 -14265.4 18375.9 -22592.7 13062.5
885 11.4212 11.4249 26.4229 -3524.12 -31070.6 -4895.7 10342.6 -3673.64 14051.5
905 11.4212 14.2803 26.4229 -1944.61 142.792 -6769.83 127.365 3843.86 2192.32
925 11.4212 17.1356 26.423 -2440.12 -483.527 150.863 -1258.76 243.674 2637.33
945 11.4212 19.9909 26.4232 -125.186 -40.8394 -2.42624 -252.331 -99.2809 2385.7
965 11.4212 22.8462 26.4233 -17694.6 -3408.17 -18141.9 -8010.07 18730.7 10721.4
985 11.4212 25.7014 26.4234 -6111.37 -19900.8 -12953.6 11265.4 -8960.47 18622.8
ITEM: TIMESTEP
250
ITEM: NUMBER OF ATOMS
50
ITEM: BOX BOUNDS xy xz yz pp pp pp
0.0000000000000000e+00 1.4276500000000000e+01 0.0000000000000000e+00
0.0000000000000000e+00 2.8565143000199761e+01 0.0000000000000000e+00
0.0000000000000000e+00 8.7105999999999995e+01 1.2143000199759304e-02
ITEM: ATOMS id x y z c_sz1[1] c_sz1[2] c_sz1[3] c_sz1[4] c_sz1[5] c_sz1[6]
5 14.2765 0.00363634 26.4234 -9802.31 -10992.9 -35193.2 10258.7 18606.5 -18051.1
25 -2.91232e-06 2.8589 26.4233 -5479.57 -28957.3 -5940.48 12327.8 -5621.8 14355
45 -3.28413e-06 5.71421 26.4231 -22800 -30337.4 -23046 26033 -22637.3 27526.7
65 -3.43973e-06 8.56953 26.423 -31412.3 -15795.7 -7040.06 -22030.8 -14267.7 -8482.78
85 14.2765 11.4249 26.4229 -20812.1 -39385.9 -15408.4 28393.7 -17507.2 26032.2
105 14.2765 14.2802 26.4229 -46340.7 -13480.1 -6543.83 24895 16798.6 -6942.06
125 14.2765 17.1356 26.423 -26359.1 -97.8326 -368.145 1701.71 -2528.78 2513.22
145 -2.89333e-06 19.9909 26.4231 -42.3265 -18974 -37700.6 -1528.76 2132.88 29287.5
165 -2.7185e-06 22.8461 26.4233 -6133.58 -13486.8 -3307.75 9210.69 4897.1 -4931.58
185 -2.71625e-06 25.7014 26.4234 -21494.8 -1355.98 -10779.6 -5168.59 15650.2 5649.87
205 2.8553 0.00363634 26.4234 -9055 -2911.63 -3305.83 4900.86 -5687.01 4630.93
225 2.8553 2.8589 26.4233 -2381.38 -544.326 -2501.28 757.23 2341.01 533.186
245 2.8553 5.71421 26.4231 -314.748 -17950.6 -21125.7 447.523 -445.008 20549.5
265 2.8553 8.56953 26.423 -16814.3 -2059.72 -22796.4 -5515.68 19190.3 8008.33
285 2.8553 11.4249 26.4229 -28539.6 -15327.6 -562.778 20702.2 208.036 1749.78
305 2.8553 14.2802 26.4229 -12329.5 -10324.2 -5424.74 11141.9 -7734.88 9293.57
325 2.8553 17.1356 26.423 -6371.84 -11717.5 -14450.2 -8575.82 9519.09 15286.6
345 2.8553 19.9909 26.4231 -10782.8 -6095.13 80.1637 8139.04 1237.21 1526.53
365 2.8553 22.8461 26.4233 -987.923 -32318.9 -26986.2 -6025.8 -5530.89 -27529.8
385 2.8553 25.7014 26.4234 -1839.92 -32455.8 -1258.31 -7892.12 1911.54 9597.17
405 5.7106 0.00363662 26.4234 -29384.5 -21060.8 -19803.4 -24705.8 -24272.3 -18979.7
425 5.71061 2.8589 26.4233 -6912.2 -2269.83 -4688.54 3659.17 5650.49 -1719.6
445 5.71061 5.7142 26.4231 -1685.92 -4408.72 -954.493 -2386.62 991.321 3027.65
465 5.71061 8.56953 26.423 -2178.68 -38813.7 -16389.8 -8417.71 -5340.6 -23175.1
485 5.71061 11.4249 26.4229 -1433.6 -202.855 -13847.9 278.744 3929.55 908.393
505 5.71061 14.2802 26.4229 -45322.8 -38085.3 -19307.8 41406.4 29286.9 -24701.7
525 5.71061 17.1356 26.423 -529.156 -19821.9 -29637.7 2908.22 3609.35 -21848.8
545 5.7106 19.9909 26.4232 -78578.1 -12496.7 -28067.6 -31374.8 -47142.2 -16409.7
565 5.7106 22.8461 26.4233 50.0921 -1821.44 -478.547 -357.214 320.81 3639.11
585 5.7106 25.7014 26.4234 -4877.12 -16144.6 -11157.9 8897.66 -7585.59 15628.7
605 8.5659 28.5566 26.4234 -687.46 -15930.2 -10058.1 3136.57 2558.91 -11314.2
625 8.5659 2.8589 26.4233 -43655.5 -1149.09 -790.187 6272.15 -6040.5 2213.23
645 8.5659 5.71421 26.4231 -14991.2 -340.653 -30540.6 1334.9 -21099.1 3317.55
665 8.5659 8.56953 26.423 -34339.5 -13328.5 -3109.58 -21158.5 9561.04 7558.01
685 8.5659 11.4249 26.4229 -2023.48 -34616.1 -473.391 -7727.92 264.677 3083.7
705 8.5659 14.2802 26.4229 -17009.6 -5708.4 -6522.84 -9768.36 10217.4 8078.83
725 8.5659 17.1356 26.423 -272.63 -2680.44 -36989.9 -712.686 -2632.48 -7659.77
745 8.5659 19.9909 26.4232 -21399.4 -11119.2 -18472.4 -15480 20071.5 16905.7
765 8.5659 22.8461 26.4233 -1495.06 -20568.4 596.462 -5785.39 161.874 2854.9
785 8.5659 25.7014 26.4234 -12361.7 -13627.8 -12046.6 -12963.9 -12579.6 -11206.4
805 11.4212 0.00363652 26.4234 -16413.3 -26594.1 -22519.3 20788.7 19325.9 -23077.7
825 11.4212 2.8589 26.4233 -12135.3 -27188.6 -42753.6 -17948.4 22560 35295.5
845 11.4212 5.71421 26.4231 -22924.9 -6002.62 -1888.35 -11453.4 5976.9 4447.23
865 11.4212 8.56953 26.423 -37837.6 -9178.08 -14465.8 18402.9 -23006.8 12851
885 11.4212 11.4249 26.4229 -3685.43 -31223.7 -5066.32 10312.7 -4034.95 13855.6
905 11.4212 14.2802 26.4229 -2115.32 -24.5166 -6908.77 113.372 3497.67 1923.71
925 11.4212 17.1356 26.423 -2603.86 -628.103 -56.8595 -1302.91 -126.602 2315.48
945 11.4212 19.9909 26.4232 -254.358 -103.117 -149.774 -232.783 -440.748 2155.99
965 11.4212 22.8461 26.4233 -17856 -3553.96 -18307.1 -8012.24 18404 10479.7
985 11.4212 25.7014 26.4234 -6206.79 -20004.6 -13059 11205.3 -9349.54 18415.5
