ITEM: TIMESTEP
100
ITEM: NUMBER OF ATOMS
50
ITEM: BOX BOUNDS xy xz yz pp pp pp
0.0000000000000000e+00 1.4276500000000000e+01 0.0000000000000000e+00
0.0000000000000000e+00 2.8565143416385087e+01 0.0000000000000000e+00
0.0000000000000000e+00 8.7105999999999995e+01 1.2143416385086399e-02
ITEM: ATOMS id x y z c_sz2[1] c_sz2[2] c_sz2[3] c_sz2[4] c_sz2[5] c_sz2[6]
17 14.2818 0.00905517 60.6752 -4294.32 167457 24264 -116063 -83882.4 -101475
37 14.2915 2.87734 60.706 187335 125367 165323 -29860 5265.19 31731.6
57 14.2885 5.70884 60.6837 63684.8 31206.6 64794.5 -26997.6 -75520.3 103485
77 14.2761 8.5939 60.673 -105357 -108252 -174907 -137172 -126012 2548.84
97 14.274 11.4345 60.657 -50851.1 -113659 -35381.7 20445.2 8982.72 113956
117 14.2846 14.2603 60.6638 73566 -152839 -14598.3 -66833.2 56846.1 -83370
137 14.2996 17.1142 60.677 15778.4 -111893 8692.26 112003 -54011 34125
157 14.2517 19.9703 60.6728 -66782.3 52078.4 -9397.52 -44716.2 -75394.7 -52743.8
177 14.2478 22.8632 60.7068 -17403.4 83794.9 35118.4 40068.8 218303 -41584.5
197 14.2989 25.6832 60.6909 -78477.6 -82321.7 -66968.5 146339 -89797 109253
217 2.8557 -0.0127755 60.6744 -46926.1 75606.7 54472 3379.17 49914.8 61393
237 2.86506 2.88105 60.6658 61196.8 59056.7 9222.28 34357.6 -14344.9 1657.45
257 2.87681 5.70305 60.6801 -43016.9 -65948.7 13752.6 40601.9 80498.6 92544.4
277 2.85093 8.54985 60.6703 -8396.33 -118071 1038.12 94170.4 86851.8 23432.4
297 2.84546 11.4051 60.6718 101929 28591.1 17203.1 -134843 -3046.77 3667.56
317 2.8594 14.2782 60.7001 -59035.3 71833.5 -109524 179074 64174.8 88895.4
337 2.86521 17.1647 60.682 35232.9 -4676.67 48055.8 -44054.5 85725.5 -125496
357 2.83937 20.0028 60.699 226379 145915 165831 37161.1 84064.5 -36904.5
377 2.84691 22.8495 60.7048 116289 -3326.04 -37483.9 -16981.7 57673.8 -12181.5
397 2.83994 25.6826 60.6741 -46715.1 -93180.2 37731.6 17870.9 127110 -3112.65
417 5.68503 -0.015096 60.6702 -248238 -110289 -86956.1 -96790.3 -58664.8 77260.2
437 5.72949 2.88739 60.7101 -39765 53645.6 -59200 -11008 -145416 -224440
457 5.69544 5.73693 60.692 -52013 -122446 26631.6 -64917.9 37103.2 -10329.8
477 5.71385 8.54842 60.6857 -45952.8 -21977.4 -32763.5 76649.1 33106 13737.5
497 5.71988 11.4576 60.7029 119951 171304 81251.8 -43690 -39950.7 -11186.6
517 5.71142 14.306 60.6753 -62337.5 -138528 -88336.7 -74464 103834 -26490.9
537 5.73408 17.1471 60.6957 -73875.8 -31592.4 28694.8 10547.6 -85318.7 -25434.3
557 5.70293 19.9791 60.7049 36510.6 30604.3 -89125.8 -108677 101371 93975.7
577 5.7122 22.8713 60.6766 -88230.9 -65341.9 -65337.7 -5612.54 -22703.5 44566
597 5.72156 25.7058 60.6812 -56160.2 -144908 -95550.8 -37462.2 -189950 -39797.5
617 8.54171 0.0192552 60.6939 -19957.3 -171825 -116105 -13274 -32183.3 10499.5
637 8.56552 2.8453 60.6744 -182739 -229313 -155181 14397.9 113839 -112450
657 8.56716 5.69594 60.6692 54219 18700.6 1346.76 -25457.8 -33994.4 -6700.65
677 8.5497 8.58848 60.6801 -122671 -82281.7 -79150.1 -9861.48 -51305.8 139078
697 8.54918 11.4162 60.6767 -67092.4 -221479 -135296 93165.9 34128.9 -65186.3
717 8.57045 14.2619 60.6941 -136627 -148857 -134155 -22.6513 -118090 -73306.4
737 8.54995 17.1193 60.7032 -92862.3 67982.8 36475.5 -98749.9 89666.8 129014
757 8.55627 20.0003 60.6589 -39486.9 67760.8 -151888 -14762.1 26180.2 -14108.7
777 8.53885 22.8726 60.6742 -105704 -8578.49 34118.4 181778 45538.9 83966.4
797 8.55052 25.7174 60.6708 5969.11 -12628.5 18515.2 133927 12068.8 61673.1
817 11.4434 0.00734614 60.6912 74745.1 162267 76019 6462.2 89224.2 9625.58
837 11.4078 2.89039 60.6586 -74446.7 -161330 -170867 90714.1 -141632 198866
857 11.4259 5.73062 60.7053 -22570.2 -97020.5 -157953 28169.5 -21709.7 -155723
877 11.4164 8.5921 60.6846 23321.2 -98206.5 42296.7 86316.6 100312 22606.6
897 11.4394 11.4093 60.7053 56027.8 -75662.8 69902.2 -43461.5 -76980.1 51602.7
917 11.399 14.2681 60.7045 9401.6 131602 -85818.9 -58784.4 85944.1 59943.6
937 11.3934 17.163 60.7097 -55110.8 -34858.7 -221448 123410 176214 -104033
957 11.4254 20.0055 60.666 -62131.9 -29199.8 -74679.8 -46489.2 -9490.66 66009.4
977 11.4103 22.869 60.6627 38408.2 -62614 -31205 14529.7 -88863.7 71884.5
997 11.422 25.6912 60.6919 114954 -52995 -27824.1 -58066.3 23658.3 -19444.6
ITEM: TIMESTEP
200
ITEM: NUMBER OF ATOMS
50
ITEM: BOX BOUNDS xy xz yz pp pp pp
0.0000000000000000e+00 1.4276500000000000e+01 0.0000000000000000e+00
0.0000000000000000e+00 2.8565143416385087e+01 0.0000000000000000e+00
0.0000000000000000e+00 8.7105999999999995e+01 1.2143416385086399e-02
ITEM: ATOMS id x y z c_sz2[1] c_sz2[2] c_sz2[3] c_sz2[4] c_sz2[5] c_sz2[6]
17 -1.16529e-05 0.00888992 60.682 -8174.3 -524.979 -1464.29 -4993.81 6606.07 1373.54
37 -3.98942e-05 2.86414 60.6822 -7056.14 -3265.42 -5053.23 -5634 -7515.58 -6341.8
57 -9.47401e-05 5.71925 60.6825 -20096.2 -10958.3 1091.72 14320.6 2710.44 -384.108
77 -0.000107896 8.57443 60.6828 -4052.12 -22006.4 42.9316 -8257.13 1213.68 2256.61
97 14.2764 11.4297 60.6829 -1605.43 -1488.16 -38853.4 -330.113 -3070.13 -1250.2
117 -7.10824e-05 14.285 60.6829 -2278.67 -35563 -21723.8 5715.37 5018.11 -24687.6
137 -3.89572e-05 17.1403 60.6828 -34765.8 -54235.2 -3143.88 42325.1 8201.76 -8643.1
157 14.2765 19.9956 60.6826 -26330.5 -31829.6 -6611.37 -28356.1 -12206.7 -13162.8
177 14.2765 22.851 60.6823 -65471.9 -2341.37 -13679.7 14628.1 30140.1 -7273.51
197 6.26962e-06 25.7065 60.6821 -30850.2 -37226.9 -1894.54 35586.2 -10774.8 10215.1
217 2.85524 28.5619 60.682 367.74 -35848.3 -3042.7 -7764.4 -2520.47 -16779.2
237 2.8552 2.86414 60.6822 -10205 -13401.9 -16916.2 -12919.5 15652.1 15794.9
257 2.85516 5.71928 60.6825 -14134.8 -29838.2 -313.834 20273.3 6444.79 -6919.01
277 2.85512 8.57445 60.6827 -6332.92 -53939.1 -7209.84 -17732 -5170.47 -18470.2
297 2.85512 11.4297 60.6829 -4829.3 -44595 -11156.2 -13107.3 -5134.43 -19790
317 2.85515 14.2849 60.6829 -895.974 -5680.64 -23727.1 511.417 887.802 12507.2
337 2.85521 17.1403 60.6828 -3996.33 -55468.7 -1567.86 -12818 2141.8 7081.45
357 2.85526 19.9956 60.6826 -24333.8 -5449.09 -1048.53 11678.9 4267.33 -1294.08
377 2.85529 22.851 60.6823 -8458.73 873.837 -17266.8 -1580.29 12558.5 1791.91
397 2.85528 25.7065 60.6821 -27309.5 -36035.7 -4064.15 -33389.3 -12836.4 -16270.3
417 5.71053 28.5619 60.682 -30157.4 -42718.3 614.665 -38360.5 -7666.86 -11363.3
437 5.71049 2.86411 60.6822 -26510.6 -44887.8 -26768.9 -36130.2 -27490.3 -37265.4
457 5.71044 5.71928 60.6825 -10361.6 -13327.7 -1094.3 11612.3 6493.84 -4891.83
477 5.7104 8.57446 60.6827 -42.085 -21428.4 -405.75 -1001.13 1894.13 5162.93
497 5.7104 11.4297 60.6828 -3251.93 -26653.9 -8303.29 -8770.1 -3181.91 -12860.1
517 5.71043 14.285 60.6828 -1704.76 -37869.6 -1182.06 8300.54 417.06 6579.3
537 5.71051 17.1403 60.6827 -33288.8 -3787.91 -3784.28 -10652.3 -9683.55 -2575.52
557 5.71056 19.9956 60.6825 -9427.53 -12605.2 -24028 -10964.3 15610.8 18265.7
577 5.71058 22.851 60.6822 1017.67 -10109 889.003 -394.32 203.712 829.11
597 5.71057 25.7065 60.682 -22787.9 2118.62 1543.2 -2296.81 -2915.36 -1505.46
617 8.56586 0.00883712 60.682 -13670 -551.938 -14114.2 6158.84 16608.9 -7909.56
637 8.56582 2.8641 60.6822 -2503.78 -6513.52 2082.85 -5460.08 842.327 -333.473
657 8.56578 5.71926 60.6825 -18.3584 -31475.8 -8261.27 3199.98 2993.32 -15867.6
677 8.56575 8.57447 60.6827 -8365.28 -533.371 -1007.87 302.89 3564.16 1402.46
697 8.56576 11.4297 60.6829 -14775.6 -5542.36 -1054.28 -8561.26 2089.71 1898.94
717 8.56579 14.285 60.6829 -6626.33 -14729.8 -16661.2 9985.71 -9005.67 16175.3
737 8.56585 17.1403 60.6827 -17436.9 -33610.4 -10737.7 -23775.7 13697.6 19079.2
757 8.5659 19.9957 60.6825 -12215.4 -1295.06 -16200.6 4884.34 -14206.9 5588.99
777 8.56591 22.851 60.6822 -55024.8 -16660.6 -4786.44 31867.1 -17967.5 9857.2
797 8.56589 25.7064 60.682 -11529.5 -3310.5 -7139.35 8610.16 -11063.8 6054.08
817 11.4212 28.5619 60.682 -5195.52 1958.36 811.519 416.089 -3646.14 -1436.61
837 11.4212 2.86409 60.6822 607.814 -14672.5 -9447.92 2649.34 -1900.11 12939.4
857 11.4211 5.71925 60.6825 -1746.21 -26058.2 -33683.1 -6854.39 -7058.38 -28728
877 11.4211 8.57445 60.6828 -7721.72 -12653.5 -506.933 9110.28 948.29 1680.16
897 11.4211 11.4297 60.6829 -17628.6 -19842.2 -13642 17656.6 -13570.1 17016.2
917 11.4211 14.285 60.6829 -25764.5 -14363.1 -21270.3 -18348.3 22715.2 17690.9
937 11.4212 17.1403 60.6828 -45890.8 -21662.5 -50348.1 30800.3 47219.2 -31342.5
957 11.4212 19.9957 60.6826 -792.018 -4976.28 -11471.5 -1578.27 2182.74 7541.02
977 11.4212 22.851 60.6823 -4991.13 -13346.2 -23306.3 8972.93 -11820.1 18053
997 11.4212 25.7065 60.6821 1736.59 -4251.07 -2943.66 90.6449 -132.78 4136.6
ITEM: TIMESTEP
250
ITEM: NUMBER OF ATOMS
50
ITEM: BOX BOUNDS xy xz yz pp pp pp
0.0000000000000000e+00 1.4276500000000000e+01 0.0000000000000000e+00
0.0000000000000000e+00 2.8565143416385087e+01 0.0000000000000000e+00
0.0000000000000000e+00 8.7105999999999995e+01 1.2143416385086399e-02
ITEM: ATOMS id x y z c_sz2[1] c_sz2[2] c_sz2[3] c_sz2[4] c_sz2[5] c_sz2[6]
17 -7.09837e-05 0.00885284 60.682 -8152.79 -528.759 -1379.14 -5006.37 7139 1727.79
37 -0.000106769 2.86409 60.6822 -6969.67 -3187.33 -4923.57 -5646.06 -6927.76 -5909.39
57 -0.000154053 5.71922 60.6825 -19941.4 -10790.3 1295.45 14389 3266 -20.451
77 -0.00017661 8.57439 60.6827 -3845.33 -21851.7 327.906 -8269.25 1768.85 2659.83
97 14.2763 11.4296 60.6829 -1427.78 -1332.07 -38563.6 -327.986 -2502.13 -809.349
117 -0.00013204 14.2849 60.6829 -2118.42 -35395.8 -21503.1 5741.08 5589.6 -24236.8
137 -9.44057e-05 17.1402 60.6828 -34611.6 -54036.5 -2950.13 42318.8 8694.31 -8301.29
157 14.2765 19.9956 60.6826 -26188.2 -31676.4 -6397.84 -28366.8 -11701.9 -12874.9
177 14.2765 22.851 60.6823 -65383.2 -2272.79 -13551.1 14608.7 30606.5 -6994.15
197 -4.59347e-05 25.7065 60.6821 -30766.3 -37158.8 -1768.74 35576.8 -10279.7 10568.9
217 2.85519 28.5619 60.682 397.491 -35816.2 -2937.19 -7785.03 -2004.19 -16429.9
237 2.85514 2.8641 60.6822 -10168.7 -13356.9 -16821.8 -12924.2 16231.8 16210
257 2.8551 5.71925 60.6825 -14018.8 -29744.6 -120.761 20275 7046.61 -6564.15
277 2.85506 8.5744 60.6827 -6168.89 -53845.2 -6969.02 -17707 -4597.87 -18118
297 2.85506 11.4296 60.6828 -4663.1 -44400 -10896.9 -13075.8 -4565.67 -19388.1
317 2.8551 14.2849 60.6829 -711.837 -5453.12 -23469.9 534.564 1454.27 12882
337 2.85515 17.1402 60.6828 -3817.16 -55256.8 -1307.77 -12831.8 2749.01 7508.45
357 2.8552 19.9956 60.6826 -24239.3 -5326.06 -824.173 11733.1 4818.8 -998.58
377 2.85524 22.851 60.6823 -8385.39 939.728 -17108.2 -1595.15 13044 2141.49
397 2.85523 25.7064 60.6821 -27233.7 -35953.1 -3941.62 -33398.1 -12353.5 -15968.6
417 5.71047 28.5618 60.682 -30083.9 -42637.3 784.073 -38435.5 -7106.45 -11023.9
437 5.71042 2.86407 60.6822 -26406 -44789.2 -26592.9 -36127.1 -26886 -36889.8
457 5.71037 5.71923 60.6824 -10154.5 -13154.3 -838.361 11582.8 7107.24 -4498.41
477 5.71034 8.57442 60.6827 130.218 -21264 -198.133 -1045.77 2543.9 5559.9
497 5.71033 11.4297 60.6828 -3071.96 -26472.2 -8056.83 -8775.31 -2556.73 -12469.9
517 5.71037 14.2849 60.6828 -1526.66 -37677.6 -941.089 8321.59 996.869 6955.62
537 5.71044 17.1403 60.6827 -33086.1 -3608.82 -3583.03 -10656.4 -9091.42 -2217.78
557 5.71049 19.9956 60.6825 -9348.29 -12524.8 -23899.5 -10948.9 16260.9 18591.3
577 5.71052 22.851 60.6822 1051.74 -10045.5 1024.17 -325.99 767.464 1169.33
597 5.71052 25.7064 60.682 -22699.5 2218.25 1671.26 -2302.97 -2405.77 -1197.14
617 8.5658 0.00879909 60.682 -13525.2 -457.953 -13883.5 6127.97 17200.8 -7567.08
637 8.56576 2.86404 60.6822 -2276.69 -6333.53 2350.59 -5487.46 1446.09 95.4647
657 8.56572 5.71921 60.6825 223.447 -31227.6 -7925.1 3203.52 3587.39 -15449.8
677 8.56569 8.57442 60.6827 -8166.33 -315.022 -690.361 303.905 4131.92 1826.24
697 8.56569 11.4297 60.6828 -14557.4 -5312.83 -760.399 -8550.09 2682.45 2332.15
717 8.56573 14.285 60.6828 -6428.59 -14510.3 -16403.7 9980.8 -8481.47 16584.2
737 8.5658 17.1403 60.6827 -17248.7 -33429.8 -10575 -23820.6 14225.9 19444.4
757 8.56584 19.9956 60.6825 -12099.7 -1203.77 -16119.9 4862.16 -13647.6 5889.16
777 8.56585 22.851 60.6822 -54922.4 -16545.7 -4647.89 31893.9 -17392 10157.8
797 8.56584 25.7064 60.682 -11404.2 -3179.31 -6948.42 8639.74 -10489.8 6350.47
817 11.4211 28.5618 60.682 -5153.76 1977.92 956.185 417.054 -3103.17 -1069.76
837 11.4211 2.86405 60.6822 770.972 -14517.8 -9236.86 2616.74 -1322.72 13334.2
857 11.4211 5.71921 60.6825 -1501.68 -25817.9 -33377.1 -6835.65 -6463.92 -28286.3
877 11.421 8.5744 60.6827 -7517.86 -12409.7 -183.59 9112.84 1528.27 2089.09
897 11.4211 11.4296 60.6829 -17416.9 -19619 -13377.9 17675.1 -13021.9 17469.3
917 11.4211 14.2849 60.6829 -25577 -14136.9 -20999 -18308.9 23222.2 18120.7
937 11.4211 17.1403 60.6828 -45728.5 -21459.7 -50154.1 30805.5 47711.1 -30965.1
957 11.4212 19.9956 60.6826 -644.316 -4809.32 -11331.2 -1564.3 2643.35 7805.55
977 11.4212 22.851 60.6823 -4860.64 -13220.8 -23144.6 8957.29 -11279.4 18326.3
997 11.4212 25.7064 60.6821 1855.9 -4174.98 -2784.64 74.5142 404.307 4474.73
