Generated by pymatgen.io.lammps.data.LammpsData

209  atoms

  1  atom types

0.000000 14.276500  xlo xhi
0.000000 28.553000  ylo yhi
0.000000 87.106000  zlo zhi
0.000000 0.000000 0.012143  xy xz yz

Masses

1  55.847

Atoms

52    1  1 14.271796  5.721646 46.407023
53    1  1 14.270847  5.722843 49.260078
71    1  1 14.273067  8.573588 43.554242
72    1  1 14.270430  8.575003 46.405928
73    1  1 14.269194  8.574375 49.261252
74    1  1 14.270655  8.575998 52.112594
91    1  1 -0.000381 11.425987 43.552446
92    1  1 -0.000699 11.427198 46.408235
93    1  1 14.270091 11.429861 49.260086
94    1  1 14.271236 11.429120 52.113525
111   1  1  0.003706 14.282653 43.552706
112   1  1 -0.000534 14.283263 46.408959
113   1  1 14.272653 14.282081 49.261110
114   1  1 14.272711 14.282876 52.114055
132   1  1  0.001861 17.135515 46.408036
133   1  1  0.000313 17.136107 49.262399
270   1  1  2.862839  8.577706 40.706218
271   1  1  2.854803  8.570914 43.550366
272   1  1  2.851857  8.571943 46.407340
273   1  1  2.851632  8.572601 49.263114
290   1  1  2.863795 11.428558 40.706624
291   1  1  2.856282 11.423928 43.552676
292   1  1  2.842253 11.419846 46.415683
293   1  1  2.851454 11.428799 49.263515
310   1  1  2.865109 14.278612 40.707528
311   1  1  2.866107 14.278439 43.556874
312   1  1  2.856121 14.282976 46.411058
313   1  1  2.854373 14.285612 49.264006
331   1  1  2.865058 17.128357 43.556520
332   1  1  2.863734 17.129509 46.406030
451   1  1  5.708844  5.714435 43.551839
452   1  1  5.708946  5.717449 46.408391
453   1  1  5.711435  5.721186 49.259852
470   1  1  5.707733  8.569899 40.698416
471   1  1  5.716031  8.574165 43.558825
472   1  1  5.707754  8.576398 46.414438
473   1  1  5.732872  8.599460 49.236131
474   1  1  5.711318  8.576179 52.114140
489   1  1  5.711218 11.425731 37.843320
490   1  1  5.710529 11.423511 40.699409
491   1  1  5.767858 11.460952 43.610661
492   1  1  5.626722 11.422756 46.412704
493   1  1  5.707591 11.421520 49.258806
494   1  1  5.708678 11.427937 52.117414
509   1  1  5.711870 14.280616 37.844790
510   1  1  5.714979 14.277689 40.708675
511   1  1  5.818392 14.174402 43.661027
512   1  1  5.767961 14.224937 46.373834
513   1  1  5.715820 14.277306 49.260612
514   1  1  5.708534 14.284882 52.119994
530   1  1  5.714375 17.127743 40.707794
531   1  1  5.714827 17.127230 43.557340
532   1  1  5.710413 17.136824 46.411110
533   1  1  5.707494 17.138162 49.264344
651   1  1  8.566351  5.716446 43.552052
652   1  1  8.564495  5.715394 46.406838
653   1  1  8.563498  5.721743 49.258803
654   1  1  8.564545  5.722791 52.112918
670   1  1  8.565484  8.570247 40.696545
671   1  1  8.572265  8.575503 43.550802
672   1  1  8.562556  8.534550 46.404962
673   1  1  8.554667  8.593215 49.242285
674   1  1  8.563204  8.577306 52.113366
689   1  1  8.567667 11.425149 37.842200
690   1  1  8.573901 11.418814 40.686166
691   1  1  8.570635 11.421929 43.469894
692   1  1  7.633260 12.359403 45.475923
693   1  1  8.562394 11.430906 49.300456
694   1  1  8.564194 11.429491 52.119383
695   1  1  8.565015 11.429245 54.972842
709   1  1  8.567087 14.280996 37.843640
710   1  1  8.569176 14.281774 40.699746
711   1  1  8.531641 14.224331 43.611141
712   1  1  8.570420 14.365903 46.412944
713   1  1  8.571972 14.285406 49.259096
714   1  1  8.565898 14.284596 52.117830
730   1  1  8.564229 17.128250 40.707284
731   1  1  8.569129 17.136126 43.553303
732   1  1  8.573674 17.150085 46.415840
733   1  1  8.565184 17.140108 49.264075
734   1  1  8.566264 17.138465 52.117231
851   1  1 11.418756  5.719423 43.554651
852   1  1 11.416947  5.720892 46.406025
853   1  1 11.417464  5.721651 49.259769
854   1  1 11.417574  5.723243 52.112594
870   1  1 11.422931  8.570425 40.697143
871   1  1 11.394770  8.597710 43.576025
872   1  1 11.399980  8.592216 46.397422
873   1  1 11.397446  8.594830 49.240667
874   1  1 11.417259  8.576204 52.113460
890   1  1 11.423038 11.427316 40.697013
891   1  1 11.417184 11.420332 43.551046
892   1  1 11.458139 11.430020 46.405376
893   1  1 11.399723 11.438408 49.242749
894   1  1 11.416332 11.430328 52.113712
895   1  1 11.420066 11.429215 54.971939
910   1  1 11.423605 14.284315 40.699342
911   1  1 11.419270 14.276075 43.559276
912   1  1 11.417021 14.284710 46.414665
913   1  1 11.394465 14.260214 49.236880
914   1  1 11.418268 14.282068 52.114878
931   1  1 11.423541 17.136478 43.550766
932   1  1 11.422889 17.139183 46.407405
933   1  1 11.422573 17.139501 49.263892
934   1  1 11.421918 17.137936 52.116449
1052  1  1  1.423287  7.147037 47.834207
1070  1  1  1.429037  9.999755 42.126773
1071  1  1  1.424910  9.998196 44.979009
1072  1  1  1.420638  9.997233 47.838374
1073  1  1  1.423050 10.001814 50.688353
1090  1  1  1.432147 12.854037 42.128970
1091  1  1  1.425660 12.854232 44.981101
1092  1  1  1.424642 12.856826 47.836967
1093  1  1  1.424617 12.856096 50.689010
1110  1  1  1.435011 15.706100 42.129393
1111  1  1  1.432185 15.706665 44.980863
1112  1  1  1.428708 15.709274 47.834817
1250  1  1  4.285467  7.145512 42.128800
1251  1  1  4.283057  7.145348 44.981265
1252  1  1  4.282000  7.147419 47.837271
1253  1  1  4.291029  7.155954 50.679749
1269  1  1  4.284178  9.999619 39.272795
1270  1  1  4.302017 10.013722 42.144818
1271  1  1  4.279051  9.992783 44.970922
1272  1  1  4.272838  9.993917 47.841804
1273  1  1  4.281846  9.998746 50.687853
1289  1  1  4.286863 12.853825 39.274929
1290  1  1  4.304198 12.853960 42.146715
1291  1  1  4.243231 12.846449 44.988898
1292  1  1  4.278904 12.864892 47.842341
1293  1  1  4.282691 12.855039 50.689550
1309  1  1  4.287544 15.705180 39.277213
1310  1  1  4.314794 15.678403 42.157062
1311  1  1  4.304142 15.689029 44.981015
1312  1  1  4.302407 15.690636 47.820359
1313  1  1  4.285291 15.707733 50.688954
1330  1  1  4.287473 18.558678 42.129974
1331  1  1  4.286843 18.561465 44.980891
1332  1  1  4.284159 18.564047 47.834473
1432  1  1  7.137182  4.290198 47.834540
1450  1  1  7.138848  7.144229 42.126548
1451  1  1  7.133237  7.139180 44.975824
1452  1  1  7.134897  7.150725 47.832419
1453  1  1  7.137570  7.153319 50.682300
1469  1  1  7.137394  9.996864 39.269208
1470  1  1  7.128555  9.992145 42.122327
1471  1  1  7.158217  9.976662 45.000742
1472  1  1  7.190944 10.094911 47.740555
1473  1  1  7.134719 10.003566 50.684420
1474  1  1  7.136934 10.001841 53.544761
1489  1  1  7.139770 12.852779 39.268591
1490  1  1  7.146711 12.845804 42.086602
1491  1  1  7.158032 12.835097 47.858418
1492  1  1  7.132971 12.860422 50.695560
1493  1  1  7.136821 12.857023 53.545963
1508  1  1  7.138917 15.705486 39.275174
1509  1  1  7.138784 15.688381 42.147118
1510  1  1  7.146587 15.749410 44.989142
1511  1  1  7.128365 15.713834 47.842475
1512  1  1  7.138465 15.710087 50.690036
1529  1  1  7.138831 18.560806 42.129759
1530  1  1  7.139435 18.567703 44.981733
1531  1  1  7.137165 18.567362 47.837568
1630  1  1  9.992832  4.289336 44.979909
1631  1  1  9.992498  4.290730 47.834558
1649  1  1  9.995906  7.145509 42.125952
1650  1  1  9.990442  7.149783 44.977649
1651  1  1  9.991743  7.149790 47.834191
1652  1  1  9.987208  7.155252 50.680304
1653  1  1  9.991475  7.148635 53.542111
1668  1  1  9.997577  9.995571 39.266826
1669  1  1 10.000187  9.992575 42.116694
1670  1  1  9.898789 10.093827 45.033668
1671  1  1  9.939330 10.053382 47.781999
1672  1  1  9.991520 10.001706 50.685275
1673  1  1  9.992125 10.001790 53.544143
1688  1  1  9.996250 12.855109 39.269661
1689  1  1 10.000678 12.863901 42.122694
1690  1  1 10.016170 12.834261 45.001101
1691  1  1  9.898512 12.802109 47.741031
1692  1  1  9.990077 12.858655 50.684827
1693  1  1  9.992355 12.856890 53.545076
1708  1  1  9.993386 15.707506 39.273371
1709  1  1  9.978823 15.689396 42.146067
1710  1  1 10.000602 15.713117 44.971135
1711  1  1  9.999910 15.719511 47.842026
1712  1  1  9.995469 15.710622 50.688659
1713  1  1  9.993758 15.711612 53.544919
1729  1  1  9.993324 18.562465 42.127613
1730  1  1  9.996180 18.566447 44.979670
1731  1  1  9.997296 18.569825 47.838789
1849  1  1 12.839660  7.153520 42.134827
1850  1  1 12.840756  7.151531 44.980310
1851  1  1 12.837702  7.154215 47.829970
1852  1  1 12.837471  7.155007 50.680654
1869  1  1 12.847417  9.997008 42.126327
1870  1  1 12.842359 10.001843 44.977718
1871  1  1 12.841950 10.000435 47.834978
1872  1  1 12.837456 10.005972 50.680938
1873  1  1 12.845709 10.002462 53.542222
1889  1  1 12.849462 12.853484 42.127308
1890  1  1 12.853648 12.859011 44.976338
1891  1  1 12.842169 12.858102 47.833186
1892  1  1 12.840222 12.855857 50.683141
1893  1  1 12.846539 12.856115 53.543063
1909  1  1 12.849546 15.705694 42.129764
1910  1  1 12.849270 15.708372 44.981455
1911  1  1 12.847134 15.709868 47.837543
1912  1  1 12.839212 15.701825 50.680852

