Generated by pymatgen.io.lammps.data.LammpsData

164  atoms

  1  atom types

0.000000 14.276500  xlo xhi
0.000000 28.553000  ylo yhi
0.000000 87.106000  zlo zhi
0.000000 0.000000 0.000000  xy xz yz

Masses

1  55.847

Atoms

91    1  1 14.279506 11.419642 43.552100
92    1  1 14.279683 11.420723 46.408463
111   1  1 14.282383 14.279414 43.550095
112   1  1 14.279504 14.277409 46.409543
270   1  1  2.864341  8.575993 40.707181
271   1  1  2.858173  8.567684 43.550919
272   1  1  2.857584  8.567991 46.407308
273   1  1  2.858948  8.569204 49.259637
290   1  1  2.862030 11.422098 40.704243
291   1  1  2.862180 11.419181 43.555085
292   1  1  2.852153 11.416860 46.412328
293   1  1  2.857584 11.421873 49.260866
310   1  1  2.863698 14.272282 40.705859
311   1  1  2.860960 14.276820 43.552691
312   1  1  2.862169 14.274432 46.410006
313   1  1  2.858172 14.278599 49.261173
330   1  1  2.864041 17.123429 40.706431
331   1  1  2.863689 17.123990 43.557229
332   1  1  2.862019 17.125607 46.407085
333   1  1  2.864335 17.122683 49.252847
451   1  1  5.708044  5.707647 43.550588
452   1  1  5.709523  5.709684 46.409568
470   1  1  5.708651  8.567866 40.700809
471   1  1  5.705222  8.557820 43.547455
472   1  1  5.705513  8.562135 46.419070
473   1  1  5.725336  8.581472 49.247365
489   1  1  5.710770 11.421382 37.843583
490   1  1  5.713136 11.419386 40.703998
491   1  1  5.807755 11.475242 43.649783
492   1  1  5.688034 11.440159 46.389033
493   1  1  5.705518 11.410111 49.266706
494   1  1  5.709525 11.419603 52.118829
509   1  1  5.710650 14.276399 37.843954
510   1  1  5.711008 14.276369 40.702456
511   1  1  5.763351 14.224233 43.605312
512   1  1  5.807683 14.179830 46.353945
513   1  1  5.705197 14.282086 49.271059
514   1  1  5.708045 14.278937 52.120866
530   1  1  5.714991 17.123741 40.706121
531   1  1  5.711001 17.127397 43.553143
532   1  1  5.713128 17.125858 46.409801
533   1  1  5.708648 17.129055 49.260975
551   1  1  5.710652 19.986229 43.553131
552   1  1  5.710772 19.986599 46.407787
651   1  1  8.567751  5.709713 43.552060
652   1  1  8.566601  5.708791 46.408396
670   1  1  8.565393  8.568105 40.700507
671   1  1  8.577279  8.562285 43.547823
672   1  1  8.561145  8.523203 46.402873
673   1  1  8.567975  8.582056 49.246776
689   1  1  8.566323 11.421095 37.843213
690   1  1  8.570444 11.417077 40.694410
691   1  1  8.547302 11.440231 43.530154
692   1  1  8.060618 11.926825 45.902464
693   1  1  8.561127 11.426327 49.305507
694   1  1  8.566602 11.420777 52.119714
709   1  1  8.566011 14.276266 37.843650
710   1  1  8.568059 14.274198 40.704159
711   1  1  8.512244 14.179755 43.649786
712   1  1  8.547259 14.299339 46.388917
713   1  1  8.577277 14.281695 49.266562
714   1  1  8.567753 14.277464 52.118799
730   1  1  8.565216 17.125236 40.704625
731   1  1  8.568063 17.125687 43.555317
732   1  1  8.570447 17.135441 46.412108
733   1  1  8.565397 17.129354 49.260733
751   1  1  8.566009 19.986533 43.553265
752   1  1  8.566321 19.986969 46.408074
870   1  1 11.418701  8.569413 40.702410
871   1  1 11.406290  8.581785 43.567838
872   1  1 11.405721  8.582231 46.409585
873   1  1 11.396295  8.591623 49.237216
890   1  1 11.419865 11.422222 40.700832
891   1  1 11.425731 11.410393 43.547873
892   1  1 11.464761 11.426577 46.402609
893   1  1 11.405711 11.419596 49.246609
910   1  1 11.420004 14.278411 40.701203
911   1  1 11.430128 14.282003 43.547507
912   1  1 11.425738 14.281645 46.418789
913   1  1 11.406288 14.261683 49.247067
930   1  1 11.411746 17.122288 40.707574
931   1  1 11.420008 17.128642 43.551104
932   1  1 11.419866 17.129010 46.406961
933   1  1 11.418697 17.127443 49.259421
1070  1  1  1.431349  9.995640 42.127070
1071  1  1  1.429632  9.993297 44.979610
1072  1  1  1.426972  9.992841 47.836178
1090  1  1  1.432448 12.847656 42.127584
1091  1  1  1.428456 12.849054 44.980293
1092  1  1  1.429630 12.849738 47.835729
1110  1  1  1.432377 15.703367 42.126310
1111  1  1  1.432444 15.702089 44.981691
1112  1  1  1.431345 15.702610 47.833380
1250  1  1  4.282161  7.138276 42.124904
1251  1  1  4.282865  7.137522 44.981504
1252  1  1  4.282414  7.138414 47.838532
1269  1  1  4.284882  9.996100 39.273524
1270  1  1  4.309561 10.017725 42.151688
1271  1  1  4.288624  9.991846 44.974093
1272  1  1  4.287642  9.998505 47.830509
1273  1  1  4.282417  9.990473 50.690265
1289  1  1  4.285694 12.847909 39.273988
1290  1  1  4.303190 12.839162 42.145050
1291  1  1  4.246348 12.846552 44.982804
1292  1  1  4.288616 12.855261 47.837179
1293  1  1  4.282861 12.847841 50.691173
1309  1  1  4.284795 15.702219 39.273797
1310  1  1  4.304548 15.683302 42.146383
1311  1  1  4.303164 15.684655 44.990182
1312  1  1  4.309543 15.678014 47.811294
1313  1  1  4.282150 15.704800 50.690414
1330  1  1  4.284795 18.556223 42.127477
1331  1  1  4.285693 18.556019 44.981439
1332  1  1  4.284881 18.556496 47.832902
1450  1  1  7.139362  7.137532 42.125604
1451  1  1  7.132065  7.126517 44.974151
1452  1  1  7.136702  7.138440 47.838222
1469  1  1  7.137652  9.993846 39.271685
1470  1  1  7.132092  9.992014 42.130875
1471  1  1  7.136271  9.909057 44.978277
1472  1  1  7.175358 10.049115 47.779860
1473  1  1  7.136717  9.990794 50.690221
1489  1  1  7.138796 12.848536 39.269350
1490  1  1  7.140905 12.846536 42.088422
1491  1  1  7.136193 12.851153 47.919973
1492  1  1  7.132073 12.855189 50.702152
1508  1  1  7.139368 15.701403 39.274103
1509  1  1  7.148208 15.684442 42.145245
1510  1  1  7.140900 15.741314 44.982815
1511  1  1  7.132090 15.698821 47.837009
1512  1  1  7.139365 15.704096 50.691147
1529  1  1  7.139369 18.555918 42.128296
1530  1  1  7.138796 18.560665 44.980812
1531  1  1  7.137651 18.558337 47.835157
1649  1  1  9.997092  7.138550 42.125300
1650  1  1  9.996763  7.138582 44.978786
1651  1  1  9.993825  7.145542 47.835189
1668  1  1  9.994498  9.993224 39.270656
1669  1  1  9.989034  9.998750 42.130255
1670  1  1  9.938466 10.049320 45.017387
1671  1  1  9.891243 10.096510 47.732463
1672  1  1  9.993808  9.993831 50.683120
1688  1  1  9.993783 12.849649 39.271868
1689  1  1  9.995648 12.855333 42.131019
1690  1  1 10.078515 12.851164 44.978186
1691  1  1  9.938475 12.811992 47.779669
1692  1  1  9.996754 12.850549 50.690095
1708  1  1  9.991490 15.702025 39.273755
1709  1  1  9.969756 15.677709 42.151977
1710  1  1  9.995651 15.698664 44.974018
1711  1  1  9.989023 15.699416 47.830252
1712  1  1  9.997094 15.704393 50.690129
1729  1  1  9.991489 18.556264 42.127674
1730  1  1  9.993781 18.558137 44.979699
1731  1  1  9.994498 18.559362 47.835777
1869  1  1 12.849887  9.990856 42.125596
1870  1  1 12.849664  9.991218 44.978732
1871  1  1 12.842180  9.994012 47.835006
1889  1  1 12.851176 12.847997 42.126170
1890  1  1 12.862087 12.855495 44.973849
1891  1  1 12.849666 12.850618 47.837808
1909  1  1 12.850115 15.704468 42.125210
1910  1  1 12.851177 15.703504 44.981349
1911  1  1 12.849889 15.704083 47.838163

