ITEM: TIMESTEP
100
ITEM: NUMBER OF ATOMS
50
ITEM: BOX BOUNDS xy xz yz pp pp pp
0.0000000000000000e+00 1.4276500000000000e+01 0.0000000000000000e+00
0.0000000000000000e+00 2.8565143000199761e+01 0.0000000000000000e+00
0.0000000000000000e+00 8.7105999999999995e+01 1.2143000199759304e-02
ITEM: ATOMS id x y z c_sz2[1] c_sz2[2] c_sz2[3] c_sz2[4] c_sz2[5] c_sz2[6]
17 0.00542828 0.0087814 60.6753 -5750.87 166393 22057 -115968 -84635 -98956.7
37 0.0151655 2.87717 60.7061 185872 124421 162563 -29707.2 4118.88 33401.4
57 0.0121429 5.70879 60.6838 62630.8 30595.4 62817.7 -26823.9 -77187.9 103946
77 -0.000235366 8.59392 60.673 -105916 -108575 -175995 -137079 -127965 2238.89
97 -0.00231005 11.4346 60.657 -50983.7 -113773 -35580.7 20424.9 7153.84 113380
117 0.00822949 14.2604 60.6638 73703.8 -152891 -14091.5 -66912 55323.5 -83716
137 0.0232649 17.1141 60.6769 16179.3 -111914 9724.02 111847 -55110 34633.6
157 -0.02468 19.9701 60.6728 -66261.8 52155.3 -8112.55 -44851.6 -76086.7 -50933.5
177 -0.0286089 22.8629 60.7068 -17297.2 83655.9 35591.4 40078.8 217916 -38938
197 0.0225025 25.6829 60.6909 -79300.7 -83034.4 -68047.3 146424 -90311.9 112118
217 2.85579 -0.0130531 60.6745 -48461.6 74421.4 52070.3 3608.62 49074.7 63987.2
237 2.86519 2.88086 60.666 59780.4 57965.5 6574.25 34524.5 -15515.6 3460.75
257 2.87698 5.70297 60.6802 -44170.9 -66716.1 11566.5 40739.5 78970.2 93277.1
277 2.85114 8.54987 60.6704 -9255.08 -118688 -526.181 94132.7 84958.1 23292.8
297 2.84565 11.4052 60.6718 101354 28005.1 16342.6 -135093 -4828.62 3130.66
317 2.85956 14.2782 60.7001 -59313.3 71325.1 -109593 178808 62706.1 88691.2
337 2.86532 17.1646 60.682 35212 -5090.37 48696.5 -44333.2 84606.5 -124987
357 2.83944 20.0027 60.699 226599 145676 166670 37031.8 83416.2 -35413.3
377 2.84695 22.8492 60.7048 116289 -3630.59 -37218.3 -16894.8 57341.4 -9737.47
397 2.83999 25.6823 60.6742 -47546.5 -93970.5 36541.9 18060 126605 -286.427
417 5.68513 -0.0153524 60.6703 -249749 -111556 -89254.5 -96436 -59537.7 79705.7
437 5.72963 2.8872 60.7103 -41100.8 52543.8 -61774.7 -10727.5 -146700 -222702
457 5.69562 5.73684 60.6922 -53181.5 -123314 24428.1 -64749.7 35480.7 -9561.43
477 5.71406 8.5484 60.6858 -46810 -22688.7 -34226.3 76621.5 31233.6 13915
497 5.72009 11.4576 60.703 119292 170604 80196.3 -43862 -41692.5 -11243.1
517 5.71159 14.306 60.6753 -62968.6 -139327 -88980.3 -74893.5 102277 -26458.2
537 5.73419 17.1471 60.6957 -74242 -32240.6 28773.9 10207.9 -86323.2 -24823.7
557 5.703 19.979 60.7049 36424.7 30119.3 -88757.5 -108855 100797 95402
577 5.71225 22.8711 60.6767 -88482 -65932.2 -65524.8 -5567.2 -23151.8 46842.8
597 5.72162 25.7055 60.6813 -57046.7 -145850 -96788.6 -37180.7 -190496 -37197.5
617 8.54181 0.019016 60.6941 -21430.9 -173069 -118258 -13004.4 -33105.3 12743.7
637 8.56567 2.84513 60.6745 -184008 -230285 -157290 14674.3 112459 -110917
657 8.56735 5.69586 60.6693 53357.7 18087.6 -372.823 -25249.1 -35703.4 -5976.25
677 8.54992 8.58845 60.6801 -123276 -82718.1 -80268.5 -9730.93 -53241.7 139304
697 8.54939 11.4161 60.6768 -67532.8 -221936 -135914 93142.4 32191.5 -65109.5
717 8.57062 14.2619 60.6941 -136971 -149386 -134436 -361.745 -119677 -73119.7
737 8.55006 17.1192 60.7032 -93016.1 67491.5 36735.9 -99063.6 88726.3 129761
757 8.55634 20.0001 60.6588 -39456.9 67411.1 -151515 -14971.1 25606.3 -12497.1
777 8.5389 22.8723 60.6742 -105872 -8998.51 33977.8 181680 45001.3 86259
797 8.55059 25.7171 60.6709 5078.89 -13528.7 17196.9 134027 11412.4 64192
817 11.4435 0.00709536 60.6913 73338.8 161253 73870.7 6461.78 88445.7 11910.5
837 11.408 2.89023 60.6587 -75761 -162182 -173038 90940 -142971 200328
857 11.4261 5.73056 60.7054 -23377.6 -97489.9 -159541 28428.4 -23486.4 -155158
877 11.4166 8.5921 60.6847 22974.3 -98359.7 41526.5 86551.8 98325.5 22569.4
897 11.4396 11.4094 60.7053 56003.7 -75668.1 69822 -43424.8 -78862.1 51297
917 11.3992 14.2681 60.7044 9523.82 131561 -85406.5 -58887.1 84425.4 59931.3
937 11.3935 17.1629 60.7096 -54772.1 -34892.1 -220598 123214 175223 -103292
957 11.4254 20.0053 60.666 -61695.2 -29148.7 -73785.8 -46638.3 -10112.4 67795.5
977 11.4104 22.8687 60.6627 38489.5 -62738.2 -30961.3 14416.3 -89395.5 74465.6
997 11.4221 25.6909 60.692 114173 -53653.9 -28880.5 -58128.4 23082.2 -16773.3
ITEM: TIMESTEP
200
ITEM: NUMBER OF ATOMS
50
ITEM: BOX BOUNDS xy xz yz pp pp pp
0.0000000000000000e+00 1.4276500000000000e+01 0.0000000000000000e+00
0.0000000000000000e+00 2.8565143000199761e+01 0.0000000000000000e+00
0.0000000000000000e+00 8.7105999999999995e+01 1.2143000199759304e-02
ITEM: ATOMS id x y z c_sz2[1] c_sz2[2] c_sz2[3] c_sz2[4] c_sz2[5] c_sz2[6]
17 7.38324e-05 0.00861407 60.6822 -9655.16 -1697.44 -3774.23 -4899.81 5827.82 3953.82
37 8.57125e-05 2.86396 60.6824 -8476.14 -4227.1 -7619.63 -5485.8 -8689.18 -4629.59
57 8.27843e-05 5.7192 60.6826 -21119.4 -11540.6 -795.687 14501.9 1048.22 90.6694
77 9.9033e-05 8.57446 60.6828 -4608.84 -22327.5 -1051.89 -8163 -735.981 1983.17
97 14.2766 11.4297 60.6829 -1776.11 -1625.64 -39098.7 -358.138 -4892.78 -1819.52
117 9.17761e-05 14.285 60.6829 -2141.78 -35608 -21218.2 5611.81 3510.41 -24998.7
137 7.99863e-05 17.1402 60.6828 -34349.2 -54253.3 -2074.48 42170.5 7094.11 -8120.39
157 14.2766 19.9954 60.6825 -25804.4 -31748.3 -5295.95 -28518.4 -12862.8 -11305.7
177 14.2766 22.8507 60.6823 -65355.7 -2436.64 -13239.2 14647.1 29745 -4588.86
197 6.29186e-05 25.7062 60.6822 -31646.7 -37943.5 -2955.13 35644 -11277.1 13101.5
217 2.85533 28.5616 60.6822 -1145.75 -37107.7 -5418.27 -7519.24 -3356.9 -14169.8
237 2.85533 2.86395 60.6823 -11677.6 -14489.5 -19584.7 -12745.5 14486.6 17579.7
257 2.85534 5.7192 60.6826 -15296.8 -30613.5 -2600.28 20386.6 4864.35 -6177.96
277 2.85532 8.57446 60.6828 -7183.02 -54552.9 -8761.4 -17792.1 -7065.26 -18640.6
297 2.85532 11.4297 60.6829 -5403.97 -45164.9 -12027.6 -13361 -6948.94 -20295.6
317 2.85531 14.285 60.6829 -1206.61 -6232.84 -23853.3 200.401 -612.938 12239.4
337 2.85533 17.1402 60.6828 -4032.65 -55883.7 -994.135 -13090.3 1013.97 7613.72
357 2.85532 19.9954 60.6825 -24152.8 -5685.58 -274.482 11543.8 3619.34 255.86
377 2.85533 22.8508 60.6823 -8458.01 565.505 -17047.1 -1453.14 12226.8 4295.53
397 2.85534 25.7062 60.6821 -28129.4 -36881.2 -5220.82 -33163.9 -13320.9 -13417.7
417 5.71063 28.5616 60.6821 -31634.8 -44015.4 -1679.91 -38036.4 -8556.34 -8952.54
437 5.71063 2.86393 60.6823 -27931.7 -46028.1 -29334.4 -35837 -28781.7 -35519.9
457 5.71062 5.71919 60.6826 -11492.3 -14168.6 -3223.21 11779.1 4866.05 -4065.34
477 5.71061 8.57444 60.6828 -923.596 -22143.9 -1916.71 -1040.94 22.3675 5319.09
497 5.7106 11.4297 60.6829 -4000.83 -27430.3 -9437.1 -9069.06 -5062.76 -12961.2
517 5.7106 14.285 60.6829 -2337.58 -38703.7 -1835.54 7897.03 -1129.38 6613.57
537 5.71062 17.1402 60.6827 -33665.9 -4490.57 -3744.57 -11001 -10689.1 -1968.1
557 5.71063 19.9955 60.6825 -9558.41 -13107.2 -23698.5 -11132 15024 19728.7
577 5.71063 22.8508 60.6823 795.77 -10656 703.186 -360.901 -238.769 3066.62
597 5.71063 25.7062 60.6821 -23677.7 1161.1 256.774 -2048 -3472.3 1139.27
617 8.56596 0.00859521 60.6821 -15102.2 -1718.24 -16284 6398.08 15650.8 -5656.17
637 8.56597 2.86393 60.6823 -3802.42 -7466.62 -166.095 -5178.29 -539.501 1213.16
657 8.56597 5.71918 60.6826 -903.433 -32097.4 -10000.1 3421.98 1275.8 -15125
677 8.56596 8.57445 60.6828 -8945.02 -979.701 -2091.97 415.999 1613.63 1630.24
697 8.56597 11.4297 60.6829 -15199.7 -5978.16 -1698.66 -8583.99 138.826 1942.39
717 8.56596 14.285 60.6829 -6933.58 -15211.4 -16939.1 9660.72 -10578 16377.8
737 8.56596 17.1403 60.6827 -17587.6 -34065.7 -10539.5 -24111.7 12748.3 19822.5
757 8.56596 19.9955 60.6825 -12172.2 -1634.22 -15776.5 4696.34 -14779.8 7186.14
777 8.56597 22.8508 60.6823 -55165.5 -17085.9 -4912.84 31798.7 -18464.3 12166.2
797 8.56596 25.7062 60.6821 -12408.8 -4187.98 -8418.27 8697.03 -11681.4 8584.14
817 11.4213 28.5616 60.6822 -6634.53 864.693 -1339.31 480.696 -4476.45 936.87
837 11.4213 2.86394 60.6824 -676.156 -15479.6 -11627 2883.08 -3230.41 14405.6
857 11.4213 5.71919 60.6826 -2556.59 -26523.3 -35297.6 -6586.82 -8834.34 -28170.6
877 11.4213 8.57445 60.6828 -8098.74 -12830.3 -1332.35 9332.61 -1022.99 1625.24
897 11.4213 11.4297 60.6829 -17665.2 -19834.3 -13719.8 17730.5 -15510 16766.3
917 11.4213 14.285 60.6829 -25591.8 -14344.4 -20803.3 -18455.7 21158.8 17671.6
937 11.4213 17.1402 60.6828 -45538.7 -21682.7 -49494.7 30600.6 46235.8 -30601.9
957 11.4213 19.9955 60.6825 -342.693 -4917.76 -10483.7 -1748.59 1550.49 9343.39
977 11.4213 22.8507 60.6823 -4893.33 -13442 -23013.8 8834.12 -12360 20619.5
997 11.4213 25.7062 60.6821 934.97 -4961.16 -4041.68 57.4581 -734.382 6853.93
ITEM: TIMESTEP
250
ITEM: NUMBER OF ATOMS
50
ITEM: BOX BOUNDS xy xz yz pp pp pp
0.0000000000000000e+00 1.4276500000000000e+01 0.0000000000000000e+00
0.0000000000000000e+00 2.8565143000199761e+01 0.0000000000000000e+00
0.0000000000000000e+00 8.7105999999999995e+01 1.2143000199759304e-02
ITEM: ATOMS id x y z c_sz2[1] c_sz2[2] c_sz2[3] c_sz2[4] c_sz2[5] c_sz2[6]
17 1.38787e-05 0.00857695 60.6822 -9626.9 -1700.81 -3678.28 -4914.45 6365.85 4318.09
37 2.09196e-05 2.86391 60.6823 -8405.56 -4159.49 -7502.44 -5500.18 -8103.23 -4195.92
57 2.40078e-05 5.71917 60.6826 -20966.2 -11366.9 -591.214 14567 1601.48 457.324
77 3.06628e-05 8.57441 60.6828 -4404.06 -22163.6 -768.507 -8174.01 -174.749 2386.29
97 14.2765 11.4297 60.6829 -1598.96 -1455.13 -38808.5 -351.299 -4327.44 -1387.96
117 3.07229e-05 14.2849 60.6829 -1969.07 -35437.1 -20998.4 5638.62 4076.07 -24563.1
137 2.40545e-05 17.1402 60.6828 -34191.3 -54061.8 -1883.35 42165.9 7584.25 -7784.71
157 14.2765 19.9954 60.6825 -25660.4 -31602.2 -5087.34 -28521 -12365.7 -11023
177 14.2765 22.8507 60.6823 -65259.8 -2360.67 -13105.3 14631.3 30208 -4313.47
197 9.79561e-06 25.7061 60.6821 -31555 -37864.9 -2819.89 35629.8 -10780 13453.6
217 2.85528 28.5616 60.6822 -1114.77 -37079.9 -5314.31 -7537.78 -2835.24 -13815.3
237 2.85527 2.86391 60.6823 -11662.9 -14458 -19500.7 -12749.3 15075.2 17998.2
257 2.85527 5.71917 60.6826 -15188.5 -30523.6 -2413.17 20390 5477.18 -5815.6
277 2.85526 8.57441 60.6828 -7035.62 -54460.8 -8529.81 -17771.4 -6477.4 -18291.8
297 2.85526 11.4297 60.6829 -5237.42 -44966.6 -11768 -13331.5 -6366.37 -19898.9
317 2.85526 14.2849 60.6829 -1019.45 -5999.6 -23599.7 219.648 -41.913 12605.3
337 2.85527 17.1402 60.6827 -3845.74 -55668.5 -729.585 -13105.3 1616.04 8024.63
357 2.85527 19.9954 60.6825 -24040 -5566.64 -38.498 11599.5 4166.67 546.306
377 2.85528 22.8507 60.6823 -8389.49 625.721 -16883.5 -1476.48 12711.1 4648.84
397 2.85528 25.7061 60.6821 -28060.5 -36805 -5096.63 -33174.6 -12839.8 -13116.9
417 5.71057 28.5616 60.6821 -31548.7 -43918.9 -1504.65 -38109.2 -7994.46 -8613.71
437 5.71056 2.86389 60.6823 -27823.6 -45929.4 -29158.2 -35830.5 -28183.5 -35145.8
457 5.71055 5.71914 60.6826 -11272.9 -13991.1 -2966.47 11745.5 5483.48 -3670.17
477 5.71054 8.5744 60.6828 -743.646 -21976.9 -1706.44 -1081.78 672.775 5716.3
497 5.71054 11.4297 60.6829 -3807.41 -27243.1 -9182.13 -9072.12 -4436.68 -12569.5
517 5.71054 14.2849 60.6829 -2148.24 -38500.1 -1591.2 7911.98 -551.136 6997.2
537 5.71055 17.1402 60.6827 -33453.2 -4296.48 -3534.53 -11007.3 -10103.4 -1614.33
557 5.71056 19.9954 60.6825 -9455.15 -13009.7 -23550.9 -11121.3 15651.5 20054.8
577 5.71057 22.8507 60.6823 834.907 -10592.6 847.911 -301.673 306.908 3422.02
597 5.71058 25.7061 60.6821 -23597.6 1258.88 386.898 -2061.08 -2954.54 1444.87
617 8.5659 0.00855798 60.6821 -14951.2 -1614.34 -16047 6374.67 16250.1 -5314.7
637 8.5659 2.86388 60.6823 -3568.65 -7282.17 104.447 -5199.32 64.4401 1636.48
657 8.56591 5.71913 60.6826 -660.011 -31848.4 -9657.73 3418.37 1871.17 -14710.5
677 8.56591 8.57439 60.6828 -8741.15 -759.988 -1764.21 419.373 2193.64 2054.86
697 8.56591 11.4297 60.6829 -14982.4 -5753.74 -1401.87 -8575 741.704 2382.18
717 8.56591 14.2849 60.6829 -6752.2 -14999.9 -16680.4 9657.2 -10032.9 16790
737 8.56591 17.1402 60.6827 -17403.4 -33878.1 -10360.8 -24148.7 13283.4 20196.7
757 8.56591 19.9954 60.6825 -12056.8 -1532.59 -15684.1 4679.38 -14223 7497.53
777 8.5659 22.8507 60.6822 -55056.3 -16956.8 -4765.31 31819.8 -17891.4 12470.5
797 8.5659 25.7061 60.6821 -12284.5 -4050.82 -8225.53 8721.34 -11109.1 8885.67
817 11.4212 28.5616 60.6822 -6585.01 888.307 -1194.89 483.933 -3930.76 1300.22
837 11.4212 2.86389 60.6823 -514.966 -15337.7 -11419.1 2846.83 -2649.79 14795.1
857 11.4213 5.71915 60.6826 -2314.8 -26278.9 -34992.5 -6573.24 -8235.5 -27721.3
877 11.4213 8.5744 60.6828 -7900.33 -12586.1 -1015.4 9329.27 -437.776 2034.51
897 11.4213 11.4297 60.6829 -17462 -19629.9 -13458.9 17750.6 -14946.9 17216.2
917 11.4213 14.2849 60.6829 -25425.5 -14143.3 -20549.8 -18401.6 21671.3 18103.7
937 11.4213 17.1402 60.6827 -45392.5 -21500.4 -49319.8 30617.6 46733.9 -30227.5
957 11.4212 19.9954 60.6825 -213.994 -4768.12 -10355.2 -1726.86 2015.42 9606.13
977 11.4212 22.8507 60.6823 -4764.79 -13313.7 -22853.9 8820.38 -11824.5 20900.6
997 11.4212 25.7061 60.6821 1052.41 -4876.07 -3888.59 35.386 -193.514 7191.45
