Generated by pymatgen.io.lammps.data.LammpsData

209  atoms

  1  atom types

0.000000 14.276500  xlo xhi
0.000000 28.553000  ylo yhi
0.000000 87.106000  zlo zhi
0.000000 0.000000 0.012143  xy xz yz

Masses

1  55.847

Atoms

52    1  1 14.274877  5.719796 46.407675
53    1  1 14.274608  5.720750 49.261434
71    1  1 14.275792  8.572579 43.554140
72    1  1 14.275715  8.573173 46.407896
73    1  1 14.275223  8.574109 49.261633
74    1  1 14.274626  8.574726 52.114792
91    1  1 -0.000353 11.426677 43.554419
92    1  1  0.002328 11.427358 46.408272
93    1  1 14.275644 11.428108 49.262150
94    1  1 14.274815 11.428705 52.115265
111   1  1 -0.000383 14.280672 43.554909
112   1  1 -0.000452 14.281560 46.408585
113   1  1 14.275591 14.282225 49.262324
114   1  1 14.274967 14.282895 52.115464
132   1  1 -0.000877 17.135023 46.408633
133   1  1 -0.001128 17.135722 49.262335
270   1  1  2.857486  8.572083 40.701222
271   1  1  2.856718  8.572488 43.554164
272   1  1  2.856225  8.573101 46.407917
273   1  1  2.856186  8.574049 49.261668
290   1  1  2.857702 11.426245 40.701463
291   1  1  2.856712 11.426646 43.554482
292   1  1  2.853470 11.427328 46.408313
293   1  1  2.856142 11.428101 49.262201
310   1  1  2.857882 14.280007 40.701921
311   1  1  2.857133 14.280601 43.554994
312   1  1  2.856580 14.281526 46.408638
313   1  1  2.856479 14.282244 49.262409
331   1  1  2.857776 17.133950 43.555175
332   1  1  2.857395 17.134941 46.408704
451   1  1  5.711251  5.717328 43.553672
452   1  1  5.711057  5.717858 46.407690
453   1  1  5.710993  5.719189 49.261445
470   1  1  5.711800  8.571738 40.699588
471   1  1  5.726653  8.587144 43.568879
472   1  1  5.717242  8.578672 46.407901
473   1  1  5.726322  8.588889 49.246793
474   1  1  5.710988  8.574631 52.116206
489   1  1  5.711411 11.425746 37.843847
490   1  1  5.712121 11.426059 40.699647
491   1  1  5.717798 11.426573 43.560136
492   1  1  5.672006 11.427285 46.408355
493   1  1  5.717170 11.428112 49.256588
494   1  1  5.710978 11.428753 52.117040
509   1  1  5.711647 14.280457 37.844330
510   1  1  5.712364 14.280048 40.700447
511   1  1  5.727296 14.265675 43.569927
512   1  1  5.717655 14.275879 46.408698
513   1  1  5.726432 14.267519 49.247715
514   1  1  5.710993 14.283150 52.117087
530   1  1  5.712344 17.133627 40.701816
531   1  1  5.712264 17.135409 43.555132
532   1  1  5.711896 17.136666 46.408807
533   1  1  5.711479 17.137195 49.262704
651   1  1  8.566016  5.717050 43.553543
652   1  1  8.565739  5.714530 46.407617
653   1  1  8.565575  5.718768 49.261593
654   1  1  8.565428  5.720801 52.115024
670   1  1  8.566419  8.571682 40.699062
671   1  1  8.566174  8.577892 43.559536
672   1  1  8.565887  8.533145 46.407770
673   1  1  8.565712  8.579609 49.256088
674   1  1  8.565533  8.574501 52.116670
689   1  1  8.566817 11.425708 37.843204
690   1  1  8.566649 11.426014 40.696065
691   1  1  8.566418 11.426461 43.514517
692   1  1  7.180172 12.813099 45.022550
693   1  1  8.565810 11.428235 49.302079
694   1  1  8.565618 11.428776 52.120429
695   1  1  8.565509 11.429166 54.973139
709   1  1  8.566922 14.280550 37.844020
710   1  1  8.566778 14.280164 40.699923
711   1  1  8.566570 14.275039 43.560531
712   1  1  8.566314 14.321501 46.408772
713   1  1  8.565980 14.276796 49.256940
714   1  1  8.565730 14.283184 52.117379
730   1  1  8.566770 17.133805 40.701667
731   1  1  8.566674 17.135941 43.555008
732   1  1  8.566436 17.140241 46.408815
733   1  1  8.566110 17.137687 49.262726
734   1  1  8.565864 17.137193 52.116244
851   1  1 11.420616  5.717684 43.553739
852   1  1 11.420376  5.718113 46.407664
853   1  1 11.420108  5.719299 49.261497
854   1  1 11.420170  5.720996 52.114908
870   1  1 11.421084  8.571980 40.699542
871   1  1 11.405692  8.587334 43.568877
872   1  1 11.414600  8.578814 46.407883
873   1  1 11.405055  8.588994 49.246734
874   1  1 11.420078  8.574640 52.116204
890   1  1 11.421270 11.426124 40.699515
891   1  1 11.415051 11.426644 43.560022
892   1  1 11.460257 11.427369 46.408245
893   1  1 11.414525 11.428115 49.256484
894   1  1 11.420268 11.428728 52.116916
895   1  1 11.420955 11.429126 54.972530
910   1  1 11.421376 14.280177 40.700339
911   1  1 11.405963 14.265825 43.569750
912   1  1 11.414970 14.275946 46.408597
913   1  1 11.405523 14.267452 49.247536
914   1  1 11.420378 14.282989 52.116824
931   1  1 11.421289 17.135530 43.555002
932   1  1 11.421050 17.136773 46.408686
933   1  1 11.420764 17.137206 49.262472
934   1  1 11.420764 17.136982 52.115935
1052  1  1  1.427475  7.146567 47.834651
1070  1  1  1.428272  9.999410 42.127453
1071  1  1  1.427957  9.999256 44.980538
1072  1  1  1.427688 10.000016 47.835649
1073  1  1  1.427443 10.001408 50.688829
1090  1  1  1.428420 12.853385 42.127829
1091  1  1  1.428119 12.854685 44.980939
1092  1  1  1.427852 12.855459 47.836025
1093  1  1  1.427599 12.855501 50.689209
1110  1  1  1.428717 15.706777 42.128749
1111  1  1  1.428311 15.708127 44.981859
1112  1  1  1.428008 15.708965 47.835516
1250  1  1  4.289389  7.150028 42.132185
1251  1  1  4.286488  7.147869 44.980828
1252  1  1  4.286273  7.148764 47.834691
1253  1  1  4.288892  7.152619 50.683137
1269  1  1  4.284151  9.998768 39.272366
1270  1  1  4.287086  9.999273 42.129751
1271  1  1  4.283471  9.997809 44.979176
1272  1  1  4.283195  9.998607 47.837049
1273  1  1  4.286243 10.001368 50.686562
1289  1  1  4.284400 12.853090 39.272696
1290  1  1  4.287328 12.853349 42.130201
1291  1  1  4.283692 12.856005 44.979632
1292  1  1  4.283353 12.856836 47.837465
1293  1  1  4.286324 12.855572 50.687005
1309  1  1  4.284837 15.706983 39.273508
1310  1  1  4.290301 15.702001 42.133521
1311  1  1  4.287180 15.705774 44.981913
1312  1  1  4.286792 15.706680 47.835648
1313  1  1  4.289051 15.704658 50.684385
1330  1  1  4.284773 18.562246 42.128128
1331  1  1  4.284215 18.563522 44.981738
1332  1  1  4.283819 18.564360 47.835730
1432  1  1  7.137767  4.289587 47.835074
1450  1  1  7.138884  7.147041 42.129102
1451  1  1  7.136688  7.144134 44.978725
1452  1  1  7.136536  7.145079 47.836654
1453  1  1  7.138338  7.149545 50.686201
1469  1  1  7.138803  9.998207 39.270710
1470  1  1  7.137215  9.997116 42.125904
1471  1  1  7.179643 10.040391 45.021775
1472  1  1  7.179594 10.041407 47.794209
1473  1  1  7.136491  9.999390 50.690242
1474  1  1  7.137691 10.001361 53.545448
1489  1  1  7.139035 12.853402 39.271061
1490  1  1  7.137491 12.855287 42.126414
1491  1  1  7.179527 12.814247 47.794852
1492  1  1  7.136530 12.857650 50.690719
1493  1  1  7.137715 12.856693 53.545790
1508  1  1  7.139481 15.707391 39.272739
1509  1  1  7.139553 15.705067 42.130448
1510  1  1  7.137376 15.709523 44.979931
1511  1  1  7.136997 15.710454 47.837743
1512  1  1  7.138592 15.707669 50.687363
1529  1  1  7.139386 18.563054 42.127748
1530  1  1  7.138826 18.565181 44.981405
1531  1  1  7.138480 18.566028 47.836223
1630  1  1  9.993657  4.288866 44.980135
1631  1  1  9.993417  4.289716 47.835077
1649  1  1  9.993554  7.147169 42.129042
1650  1  1  9.995161  7.144291 44.978745
1651  1  1  9.994901  7.145166 47.836656
1652  1  1  9.992793  7.149558 50.686239
1653  1  1  9.992898  7.147231 53.543854
1668  1  1  9.994517  9.998260 39.270635
1669  1  1  9.995617  9.997198 42.125855
1670  1  1  9.952655 10.040459 45.021755
1671  1  1  9.952099 10.041545 47.794080
1672  1  1  9.994840  9.999399 50.690202
1673  1  1  9.993331 10.001359 53.545411
1688  1  1  9.994646 12.853474 39.271026
1689  1  1  9.995789 12.855351 42.126326
1690  1  1  9.952653 12.813257 45.022371
1691  1  1  9.952563 12.814219 47.794760
1692  1  1  9.995008 12.857599 50.690608
1693  1  1  9.993445 12.856633 53.545693
1708  1  1  9.994315 15.707433 39.272781
1709  1  1  9.993928 15.705117 42.130404
1710  1  1  9.995689 15.709596 44.979848
1711  1  1  9.995430 15.710478 47.837654
1712  1  1  9.993217 15.707636 50.687216
1713  1  1  9.993270 15.711095 53.544699
1729  1  1  9.994241 18.563018 42.127732
1730  1  1  9.994435 18.565216 44.981318
1731  1  1  9.994187 18.566076 47.836136
1849  1  1 12.842987  7.150408 42.132236
1850  1  1 12.845439  7.148099 44.980825
1851  1  1 12.845152  7.148923 47.834659
1852  1  1 12.842128  7.152693 50.683153
1869  1  1 12.845886  9.999355 42.129644
1870  1  1 12.848903  9.997892 44.979124
1871  1  1 12.848625  9.998677 47.836988
1872  1  1 12.845109 10.001404 50.686486
1873  1  1 12.848124 10.001742 53.543909
1889  1  1 12.846038 12.853427 42.130039
1890  1  1 12.849068 12.856080 44.979526
1891  1  1 12.848818 12.856850 47.837376
1892  1  1 12.845298 12.855518 50.686850
1893  1  1 12.848267 12.856169 53.544186
1909  1  1 12.843507 15.702147 42.133381
1910  1  1 12.845954 15.705898 44.981793
1911  1  1 12.845690 15.706715 47.835521
1912  1  1 12.842696 15.704509 50.684077

