ITEM: TIMESTEP
100
ITEM: NUMBER OF ATOMS
50
ITEM: BOX BOUNDS xy xz yz pp pp pp
0.0000000000000000e+00 1.4276500000000000e+01 0.0000000000000000e+00
0.0000000000000000e+00 2.8565143416385087e+01 0.0000000000000000e+00
0.0000000000000000e+00 8.7105999999999995e+01 1.2143416385086399e-02
ITEM: ATOMS id x y z c_sz1[1] c_sz1[2] c_sz1[3] c_sz1[4] c_sz1[5] c_sz1[6]
5 -0.0136106 28.5729 26.4506 -30672.8 -78629.3 -132374 160263 76459.3 -63638.5
25 0.00378775 2.8351 26.4363 -64060.2 -163423 -78603.7 58074.6 69191.2 33699.4
45 0.0211299 5.69826 26.4446 -95794.1 65698.5 -76203.8 -15646.7 -79112.9 -58915.8
65 0.0198244 8.58623 26.4446 -20533.2 -47003.6 -219532 -106453 8821.67 -55180.8
85 -0.0266661 11.4502 26.4087 -84733.5 -158016 -90288.8 53717.9 -7614.71 63140.2
105 -0.0266086 14.2929 26.4359 -158813 -76621.8 -100184 87661.6 13867.9 -10729.8
125 -0.0220483 17.1424 26.42 -53169.2 -79557.3 -18639.6 21261.8 -64000.8 -54675
145 0.00124774 19.9669 26.4427 89541.1 -23452.9 71612.7 52743.4 -22235 139007
165 0.00785996 22.8273 26.4138 -31055.8 57441.2 -10141 -2676.16 33871.7 23946.1
185 0.0245124 25.7046 26.4047 -82812.8 120515 32831.6 40972 7381.89 35622.5
205 2.83904 28.5653 26.4149 69428.9 43466.6 -13815.8 95395.3 -2607.08 38585.9
225 2.85572 2.85138 26.4219 -21910.9 -1850.49 -117047 -74578.8 67301.6 28433.1
245 2.84761 5.73546 26.4006 49194.6 43531 -61967.6 59471.2 46223.7 33915.4
265 2.88103 8.5738 26.4022 -176372 -60883.4 -65124.9 -37251.6 -49708.7 37015
285 2.88196 11.4169 26.4198 17811.6 36936.5 54009.2 96952.3 20779.1 -160233
305 2.83988 14.285 26.412 -1213.06 89441.2 -5694.56 -81176.4 30422.9 114068
325 2.86785 17.156 26.4069 67734 -52866.3 -53770.8 34723.1 27623.8 -28310.4
345 2.84254 19.9904 26.4188 -1499.77 75333.8 95863.4 -111.455 1109.58 122940
365 2.85689 22.865 26.4417 75215.2 9827.85 -4522.76 20322.9 31068.7 71942.8
385 2.84919 25.6748 26.428 -65227.1 -54458 -14923.3 -111797 -13969.4 -5690.56
405 5.73043 28.5732 26.4286 219547 143956 247626 -84601.9 66399.2 21232.2
425 5.7186 2.85625 26.4114 93631.8 48068 -1111.6 30951.1 35607.5 -85512.4
445 5.72339 5.72362 26.4139 54554.9 39664.4 82791.8 -71253.4 -58055.5 39962.7
465 5.69763 8.54891 26.4084 -223825 -136169 -74181 14298.4 73602.8 -162658
485 5.70744 11.4308 26.4508 -272643 -56085.3 -259525 -12066.4 853.603 -75989.2
505 5.68399 14.3029 26.4383 -63953.6 -92618.4 27569.6 46096.8 68699.1 13622
525 5.71781 17.1199 26.4011 -82678.8 -201273 -124141 6761.66 -32278.9 -115751
545 5.68306 19.9673 26.4047 -236247 -125975 -115907 -113891 -222462 37449.7
565 5.71234 22.8514 26.4217 -1111.29 59713.1 -47286.3 -23723.4 -9159.02 24741.5
585 5.70016 25.7129 26.4101 -36724.8 3280.59 -90488.2 1297.29 -2610.62 92637.4
605 8.57212 28.5393 26.4013 14470.1 61022.9 75643.8 49434.2 -22418.4 -58561.2
625 8.59021 2.85704 26.4305 -107364 36737 -66572.8 5437.4 49679.3 -9247.73
645 8.54715 5.72032 26.4061 -128262 -144873 -196339 -38047.6 -67075.9 -33289
665 8.54443 8.5526 26.435 -145351 -198060 -93420.5 33441 9575.44 56709.1
685 8.54932 11.402 26.4306 -80271.5 -126977 -113535 -6798.05 130217 11815.1
705 8.54732 14.2736 26.4337 92651.2 111656 -14722.4 -138872 44634 -42956.8
725 8.56552 17.1443 26.4472 37678.7 -20366.9 -7815.4 -42879.5 22150.2 -12139.3
745 8.5465 19.9716 26.4449 -94089.4 -79226.5 -40211.2 -38781.2 81786.2 74203.4
765 8.57082 22.8632 26.4166 120073 71705.2 91000 28284.9 6024.25 104246
785 8.55392 25.6898 26.4087 4398.23 -102320 -77727.8 8347.28 -74824.3 -106048
805 11.4087 28.582 26.446 -82168.6 39331.3 -83862.5 134068 -20015.6 -116599
825 11.4309 2.8863 26.3985 -157802 -251384 -152262 -27732.8 92796.2 19525
845 11.4365 5.71697 26.418 60445.2 -71340.2 -3033.5 -108662 110598 72333
865 11.3991 8.57845 26.3988 84582.9 -9054.96 65699.1 56418 -165703 123417
885 11.434 11.4007 26.4273 51356.1 43211.8 48701.4 124596 -9074.53 -30706.7
905 11.4296 14.2898 26.4083 35702.9 155079 30361.6 -11275.2 47639.8 -104752
925 11.4333 17.1501 26.4311 -142599 -181115 -151594 -45578.4 -55066.6 -151403
945 11.4185 19.9822 26.4327 -50631.2 -163415 -68144.9 26851.4 92154.3 115919
965 11.4392 22.8523 26.4113 -112281 -135113 -183920 -16806 33784.3 75250.8
985 11.4296 25.6764 26.4509 -20201.7 -123375 -260514 -124194 -11915 127755
ITEM: TIMESTEP
200
ITEM: NUMBER OF ATOMS
50
ITEM: BOX BOUNDS xy xz yz pp pp pp
0.0000000000000000e+00 1.4276500000000000e+01 0.0000000000000000e+00
0.0000000000000000e+00 2.8565143416385087e+01 0.0000000000000000e+00
0.0000000000000000e+00 8.7105999999999995e+01 1.2143416385086399e-02
ITEM: ATOMS id x y z c_sz1[1] c_sz1[2] c_sz1[3] c_sz1[4] c_sz1[5] c_sz1[6]
5 14.2766 0.00345743 26.4235 -8771.1 -9924.75 -33862.8 10222.8 19873.7 -19780.7
25 0.000147806 2.85876 26.4233 -4601.09 -27931.8 -4909.05 12358.1 -4295.29 12976.3
45 0.000156094 5.71411 26.4232 -22077.6 -29469.3 -22270.1 26072.8 -21186.6 26617.5
65 0.000148904 8.56947 26.423 -30843.7 -15058.8 -6359.49 -22014.4 -12755.2 -9028.44
85 14.2767 11.4248 26.4229 -20417.6 -38892.5 -14843.3 28474.4 -15870 25751.5
105 14.2767 14.2802 26.4229 -46025.5 -13187.5 -6016.27 24909.6 18542.5 -7229.67
125 14.2767 17.1355 26.423 -26087.4 54.4679 248.418 1700.42 -774.456 2126.92
145 0.000184037 19.9908 26.4232 333.944 -18843.6 -36888.2 -1573.03 3827.6 28433.4
165 0.000166496 22.846 26.4234 -5475.44 -13033.8 -2170.18 9172.85 6416.92 -6291.42
185 0.000152626 25.7012 26.4235 -20637.7 -554.238 -9448.12 -5263.61 17039.4 3941.86
205 2.85545 0.00346036 26.4235 -8015.35 -1871.94 -1949.64 4883.6 -4344.98 2907.58
225 2.85545 2.85875 26.4233 -1465.5 501.576 -1403.2 794.587 3691.57 -911.522
245 2.85546 5.71409 26.4232 446.124 -17043.4 -20324.4 464.435 1003.62 19569.3
265 2.85546 8.56946 26.423 -16215.6 -1371.96 -22186 -5495.13 20665.6 7450.2
285 2.85547 11.4248 26.423 -28124.8 -14835.9 -56.1008 20733.8 1809.54 1402.97
305 2.8555 14.2802 26.423 -11982.5 -9960.45 -4921.64 11146.7 -5973.54 8981.36
325 2.85549 17.1355 26.423 -6053.46 -11508.4 -13830.2 -8599.97 11279.4 14879.3
345 2.85549 19.9908 26.4232 -10390.1 -5839.98 942.827 8130.89 2965.13 715.828
365 2.85547 22.846 26.4234 -329.827 -31812.4 -25793.5 -6095.32 -3929.61 -28832.9
385 2.85546 25.7012 26.4235 -967.324 -31675.7 138.26 -7903.24 3340.49 7947.53
405 5.71075 0.00345431 26.4235 -28234.8 -19960.6 -18253.7 -24632.5 -22906.5 -20658.6
425 5.71075 2.85874 26.4234 -5867.72 -1108.03 -3439.72 3705.13 7057.88 -3160.1
445 5.71076 5.71409 26.4232 -791.989 -3358.52 19.7333 -2359.97 2426.93 2046.19
465 5.71077 8.56946 26.4231 -1501.85 -38046.1 -15624.2 -8324.76 -3761.73 -23772.8
485 5.71079 11.4248 26.423 -914.107 357.721 -13240.2 327.197 5658.73 468.337
505 5.7108 14.2802 26.423 -44847.9 -37621.2 -18714.4 41363.6 31084.3 -25096.6
525 5.71079 17.1355 26.4231 -156.725 -19569.9 -28979.7 2828.62 5392.85 -22315.3
545 5.71079 19.9908 26.4232 -78172.6 -12177.3 -27156.9 -31493.6 -45425.2 -17248.4
565 5.71077 22.846 26.4234 773.015 -1213.74 740.537 -465.156 1837.58 2387.97
585 5.71075 25.7012 26.4235 -3911.92 -15281.9 -9676.73 8899.06 -6212.08 14103.7
605 8.56605 28.5565 26.4235 392.897 -14807.3 -8600.34 3104.57 3937.44 -12927.6
625 8.56605 2.85875 26.4234 -42613.7 0.831453 461.329 6332.72 -4636.8 863.209
645 8.56606 5.71409 26.4232 -14155.8 683.186 -29549.6 1433.93 -19647.1 2377.91
665 8.56607 8.56946 26.4231 -33671.4 -12546.5 -2273.11 -21037.4 11141.2 6984.62
685 8.56609 11.4248 26.423 -1510.25 -34049.3 248.737 -7636.68 2059.53 2643.95
705 8.5661 14.2802 26.423 -16543.5 -5261.97 -5859.6 -9717.2 12063.5 7658.38
725 8.5661 17.1355 26.4231 127.289 -2385.5 -36294 -790.295 -823.155 -8200.22
745 8.56607 19.9908 26.4232 -20977.1 -10810.5 -17588.7 -15562.2 21696.1 16020
765 8.56607 22.846 26.4234 -802.303 -20010 1761.62 -5894.94 1693.14 1560.68
785 8.56605 25.7012 26.4235 -11440.1 -12782.3 -10671.8 -13075.4 -11160.9 -12803.8
805 11.4213 0.00345434 26.4235 -15370 -25477.5 -21119.6 20736.9 20652.2 -24762.3
825 11.4213 2.85876 26.4233 -11159.9 -26088.8 -41605.1 -17929.1 23915.6 33980.4
845 11.4213 5.7141 26.4232 -22147.4 -5030.25 -982.464 -11421.2 7389.68 3544.28
865 11.4214 8.56948 26.423 -37258.4 -8425.86 -13704.1 18505 -21401.1 12308.3
885 11.4214 11.4248 26.423 -3242.29 -30722 -4429.72 10462.4 -2317.37 13488.6
905 11.4214 14.2802 26.423 -1740.38 323.158 -6324.11 182.826 5287.76 1637.61
925 11.4214 17.1355 26.4231 -2245.88 -392.82 676.818 -1283.61 1658.4 1861.16
945 11.4214 19.9908 26.4232 175.297 106.599 737.675 -336.685 1193.82 1228.85
965 11.4214 22.846 26.4234 -17155.9 -3019.36 -17105.9 -8118.2 19868.6 9129.28
985 11.4213 25.7012 26.4235 -5294.51 -19173 -11701.9 11170.9 -7983.87 16736.4
ITEM: TIMESTEP
250
ITEM: NUMBER OF ATOMS
50
ITEM: BOX BOUNDS xy xz yz pp pp pp
0.0000000000000000e+00 1.4276500000000000e+01 0.0000000000000000e+00
0.0000000000000000e+00 2.8565143416385087e+01 0.0000000000000000e+00
0.0000000000000000e+00 8.7105999999999995e+01 1.2143416385086399e-02
ITEM: ATOMS id x y z c_sz1[1] c_sz1[2] c_sz1[3] c_sz1[4] c_sz1[5] c_sz1[6]
5 14.2766 0.00342795 26.4234 -8842.35 -10000.8 -33963.9 10206.8 19450.1 -19992.9
25 9.23137e-05 2.85873 26.4233 -4632.58 -27978.1 -5013.69 12344.7 -4755.72 12733.1
45 0.000105522 5.71408 26.4232 -22175.9 -29540.2 -22425.4 26103 -21649.3 26398.8
65 0.000122746 8.56945 26.423 -30987.6 -15234.2 -6599.15 -21948.5 -13114 -9208.84
85 14.2766 11.4248 26.4229 -20534.3 -39064.6 -15054.8 28482 -16215.6 25544.6
105 14.2766 14.2802 26.4229 -46125.5 -13317.6 -6147.66 24931.5 18184 -7437.56
125 14.2766 17.1355 26.423 -26155.1 -23.1833 138.456 1688.7 -1148.05 1784.4
145 0.000134597 19.9907 26.4232 269.946 -18847.2 -36977.9 -1586.34 3391.3 28161
165 0.000117357 22.846 26.4234 -5583.17 -13095.1 -2253.88 9129.71 5994.58 -6522.93
185 0.000100969 25.7012 26.4235 -20672 -621.68 -9509.14 -5248.79 16597.1 3722.52
205 2.8554 0.00342719 26.4235 -8050.13 -1889.33 -2042.11 4901.93 -4776.92 2670.91
225 2.85541 2.85873 26.4233 -1477.73 488.695 -1522.47 796.947 3277.42 -1125.61
245 2.85542 5.71408 26.4232 374.9 -17106.4 -20471.2 521.618 598.726 19392.2
265 2.85544 8.56945 26.423 -16310.1 -1447.7 -22318.3 -5460.2 20400.9 7260.67
285 2.85545 11.4248 26.4229 -28178.1 -14940.5 -191.172 20732.8 1571.73 1229.85
305 2.85546 14.2802 26.4229 -12053.2 -10102.3 -5033.14 11134.6 -6293.5 8781.81
325 2.85546 17.1355 26.423 -6090.49 -11572.2 -13921.4 -8624.92 10936.3 14570.3
345 2.85544 19.9907 26.4232 -10409.5 -5896.63 846.273 8068.38 2531.01 428.396
365 2.85542 22.846 26.4234 -380.968 -31879.2 -25888.4 -6088.63 -4420.64 -29088.1
385 2.85541 25.7012 26.4235 -959.241 -31673.4 60.3231 -7927.67 2890.62 7690.48
405 5.71071 0.00343184 26.4235 -28349.8 -20009 -18442.4 -24687.8 -23305.7 -20902.5
425 5.71071 2.85873 26.4234 -5981.73 -1189.92 -3600.42 3722.27 6637.58 -3339.13
445 5.71072 5.71408 26.4232 -952.643 -3508.19 -147.129 -2288.76 2093.28 1856.18
465 5.71075 8.56944 26.423 -1630.14 -38140 -15789.8 -8329.56 -4052.23 -23973.8
485 5.71076 11.4248 26.423 -1016.24 254.565 -13362.3 310.175 5386.13 318.023
505 5.71077 14.2802 26.423 -44983.4 -37787.5 -18819.2 41367.4 30798.7 -25270.7
525 5.71076 17.1355 26.4231 -209.842 -19605.9 -29055.3 2824.89 5079.3 -22597.5
545 5.71075 19.9907 26.4232 -78181.8 -12239.6 -27263.8 -31477.5 -45801.4 -17501.7
565 5.71073 22.846 26.4234 688.441 -1344.18 630.035 -446.196 1479.9 2111.36
585 5.71071 25.7012 26.4235 -3972.17 -15335.3 -9787.89 8871.61 -6576.01 13759.9
605 8.566 28.5564 26.4235 305.155 -14868 -8697.92 3126.28 3482.07 -13185.9
625 8.566 2.85873 26.4234 -42765.7 -88.0971 324.848 6333.7 -5094.66 640.438
645 8.56602 5.71408 26.4232 -14298.4 542.564 -29702.2 1449.13 -20031.6 2182.18
665 8.56604 8.56944 26.423 -33825.5 -12683.2 -2443.18 -21034.8 10832.2 6766.35
685 8.56606 11.4248 26.423 -1651.72 -34185.7 84.8391 -7639.98 1715.3 2467.17
705 8.56606 14.2802 26.423 -16728.4 -5434.1 -6009.21 -9758.07 11735.1 7462.99
725 8.56606 17.1355 26.4231 -1.35506 -2495.89 -36407.2 -776.248 -1169.36 -8444.35
745 8.56604 19.9907 26.4232 -21021 -10897.2 -17686.5 -15587.2 21403.4 15777.8
765 8.56603 22.846 26.4234 -900.058 -20120 1677.64 -5905.59 1331.03 1306.18
785 8.56601 25.7012 26.4235 -11499.3 -12826.4 -10714.4 -13046.4 -11572.4 -13066.9
805 11.4213 0.00343318 26.4235 -15461.1 -25581.4 -21250.9 20723.5 20176.5 -24971.2
825 11.4213 2.85873 26.4233 -11283.8 -26198 -41759.5 -17927.1 23447.4 33742.4
845 11.4213 5.71408 26.4232 -22281.1 -5181.39 -1143.67 -11364.7 6985.96 3326.74
865 11.4213 8.56945 26.423 -37407.8 -8598.32 -13902.9 18531.7 -21822.8 12101.8
885 11.4213 11.4248 26.423 -3394.63 -30868.2 -4591.07 10430.8 -2681.13 13305.2
905 11.4214 14.2802 26.423 -1903.77 161.495 -6449.68 170.404 4937.84 1365.85
925 11.4213 17.1355 26.423 -2401.22 -531.481 477.568 -1327.73 1286.14 1540.29
945 11.4213 19.9907 26.4232 50.9961 53.0172 595.85 -314.86 855.14 1000.48
965 11.4213 22.846 26.4234 -17315 -3157.43 -17263.2 -8121.89 19534.8 8892.39
985 11.4213 25.7012 26.4235 -5392.64 -19276.5 -11804.2 11106.8 -8385.3 16528.1
