ITEM: TIMESTEP
100
ITEM: NUMBER OF ATOMS
50
ITEM: BOX BOUNDS xy xz yz pp pp pp
0.0000000000000000e+00 1.4276500000000000e+01 0.0000000000000000e+00
0.0000000000000000e+00 2.8579419500000000e+01 0.0000000000000000e+00
0.0000000000000000e+00 8.7105999999999995e+01 2.6419499999999999e-02
ITEM: ATOMS id x y z c_sz1[1] c_sz1[2] c_sz1[3] c_sz1[4] c_sz1[5] c_sz1[6]
5 -0.0131825 28.5767 26.4498 -30607.9 -77735.1 -132623 156272 75919.2 -61805.2
25 0.00366365 2.84016 26.4359 -61905.5 -161535 -77112.3 56683 66838.8 36535.9
45 0.0204733 5.7031 26.444 -95126.6 62554.4 -76358.4 -13447.2 -78874.2 -53208.9
65 0.019202 8.59003 26.4439 -22072.2 -47059.1 -215538 -104805 6295.27 -52987.5
85 -0.0258386 11.4538 26.4092 -86459.8 -156416 -88228 55480.3 -9051.7 65137.1
105 -0.0257686 14.2968 26.4355 -157887 -74908.1 -98063.1 86608.3 15325.9 -8864.93
125 -0.0213542 17.1465 26.4201 -54383 -77478.5 -18074.4 21390.9 -62269.7 -50635.3
145 0.00121627 19.972 26.442 87037.3 -26077.3 67493.5 51308 -21610.1 139453
165 0.00761425 22.8322 26.4141 -30239.9 53691.2 -10198.5 -1942.04 33102.7 24631.8
185 0.0237561 25.7088 26.4053 -83464.3 117232 30047.2 39456.4 9315.07 36777
205 2.83955 28.5693 26.4152 65635.9 41680.5 -13724.5 93197.7 -3236.05 39977.9
225 2.8557 2.85593 26.422 -21151.7 -2175.98 -113402 -72220.9 65205.1 29743.2
245 2.84784 5.73912 26.4013 48089.1 40090.6 -62353.7 58327.3 44184.4 37192.3
265 2.88024 8.57799 26.4029 -174280 -58276.4 -64947.9 -36706.7 -45708.5 38572.4
285 2.88114 11.4215 26.4198 13279.9 36061.8 52845 95413.1 20246.5 -153512
305 2.84037 14.2892 26.4123 -2485.65 86719.9 -6068.48 -78274.2 28705.8 112939
325 2.86747 17.1597 26.4074 65449.2 -52993.7 -52951.3 32811.2 27329.9 -23904.5
345 2.84294 19.9947 26.4189 -2147.73 73104.8 92984.6 -101.914 967.944 121543
365 2.85684 22.8687 26.4411 72935.5 7517.42 -6337.95 19547.7 30004.3 70109.7
385 2.84938 25.68 26.4279 -63352.2 -57022.1 -14454.4 -109150 -13421.6 -2611.73
405 5.7298 28.577 26.4285 210646 138123 240028 -83686.6 63978.5 22348.8
425 5.71835 2.86066 26.4118 90503.6 46763 -1842.37 30125.9 34954.1 -80835.2
445 5.723 5.72765 26.4142 52218.7 38216.2 80090.4 -69788.5 -55770.1 41508.8
465 5.69803 8.55389 26.4089 -217893 -134125 -72906.1 12352.7 70347.2 -156749
485 5.70754 11.435 26.4499 -263967 -54436.8 -256391 -11602.6 1497.8 -72248.5
505 5.68483 14.3065 26.4378 -65790.6 -92519.4 25766.3 47827.2 68706.8 13781
525 5.71759 17.1248 26.4018 -80288.3 -196274 -122903 7109.44 -30370 -111655
545 5.68394 19.9723 26.4053 -232328 -125109 -113843 -113724 -218060 36206.9
565 5.71229 22.8556 26.4217 -1061.72 57618.7 -45776.2 -23025.7 -8866.74 26230
585 5.70049 25.7169 26.4105 -36150.5 2521.02 -88660 1840.33 -3251.46 92663.2
605 8.57193 28.5441 26.402 14277.9 57756.3 70313.9 48416.1 -21069.6 -56575.8
625 8.58944 2.86143 26.4303 -107116 35709.6 -64788.4 5392.79 47193.3 -6714.89
645 8.54774 5.72447 26.4066 -126602 -140595 -191594 -36141.2 -66580.1 -29504.8
665 8.54511 8.55746 26.4347 -143165 -193241 -91261.9 30497.9 10793.3 58268.6
685 8.54983 11.4071 26.4304 -79308 -125495 -110234 -8696.05 126891 14775.4
705 8.54791 14.2782 26.4333 87937.7 108282 -14818.5 -135218 44535.2 -39164.4
725 8.56553 17.1484 26.4464 36614.8 -20263 -10910.5 -41455.5 21641.6 -10823.3
745 8.54712 19.9765 26.4443 -92865.2 -78955.5 -41571.4 -39483.3 81345.2 76434.5
765 8.57067 22.867 26.4168 116326 67874.3 88174.7 27048.3 6103.24 103836
785 8.5543 25.6945 26.4092 3472.17 -99764.1 -76484.5 7524.61 -73409.9 -101367
805 11.4091 28.5855 26.4453 -80062 34279.2 -84010.4 131471 -18058.1 -113753
825 11.4306 2.88977 26.3993 -152872 -247748 -150599 -28286.2 91110.4 24624.2
845 11.436 5.7212 26.4181 57204.3 -69157 -2999.36 -105371 107594 72390.4
865 11.3998 8.58249 26.3995 79233.9 -8811.57 60115.8 55687.3 -163419 123008
885 11.4336 11.4058 26.4271 48679.9 38548.3 47146.4 122387 -9017.39 -26955
905 11.4293 14.2938 26.4088 34618.6 149999 28513.7 -11382.7 46939.3 -98656.2
925 11.433 17.154 26.4308 -138864 -176686 -147164 -45105.7 -53796.8 -145052
945 11.4186 19.9868 26.4324 -49028.1 -158701 -66525.5 25874.9 89467 114988
965 11.4387 22.8564 26.4117 -110559 -131204 -178851 -16937.5 33773.1 75492.9
985 11.4293 25.6815 26.45 -19565.3 -123074 -256672 -119031 -12831.9 129664
ITEM: TIMESTEP
200
ITEM: NUMBER OF ATOMS
50
ITEM: BOX BOUNDS xy xz yz pp pp pp
0.0000000000000000e+00 1.4276500000000000e+01 0.0000000000000000e+00
0.0000000000000000e+00 2.8579419500000000e+01 0.0000000000000000e+00
0.0000000000000000e+00 8.7105999999999995e+01 2.6419499999999999e-02
ITEM: ATOMS id x y z c_sz1[1] c_sz1[2] c_sz1[3] c_sz1[4] c_sz1[5] c_sz1[6]
5 14.2766 0.00779066 26.4235 -8799.3 -9901.95 -33880.8 10221.2 19956.4 -17522.1
25 0.000149667 2.8631 26.4233 -4586.59 -27895.2 -4879.36 12363.5 -4214.32 15238.6
45 0.000160093 5.71844 26.4232 -22066.1 -29421.8 -22182.5 26076.4 -21157 28871
65 0.000169887 8.57381 26.423 -30931 -15168 -6461.02 -22003 -12643.8 -6777.06
85 14.2767 11.4292 26.4229 -20443.5 -38943.4 -14880.1 28484.1 -15756.7 28032.3
105 14.2767 14.2845 26.4229 -46012.4 -13190.9 -5982.92 24869.7 18600.2 -4940.48
125 14.2767 17.1398 26.423 -25991.7 144.269 331.528 1711.3 -734.403 4323.92
145 0.000186758 19.9951 26.4232 467.297 -18700.6 -36709.7 -1574.68 3885.06 30657.8
165 0.000168713 22.8503 26.4234 -5381.94 -12982.1 -2065.07 9165.61 6509.78 -4084.91
185 0.000153713 25.7055 26.4235 -20593.2 -537.681 -9436.32 -5233.43 17074 6113.12
205 2.85546 0.00778728 26.4235 -8012.67 -1852.09 -1955.16 4874.55 -4301.46 5155.13
225 2.85545 2.86309 26.4233 -1400.74 576.145 -1356.79 778.89 3730.29 1388.19
245 2.85547 5.71843 26.4232 496.891 -16962.5 -20232.2 490.142 1077.09 21825.4
265 2.85547 8.5738 26.423 -16281.1 -1376.58 -22183.6 -5475.1 20770.3 9703.92
285 2.85549 11.4292 26.423 -28092.9 -14902.5 -70.2654 20731.6 1909.42 3695.09
305 2.8555 14.2845 26.423 -11975.5 -9989.11 -4881.54 11145.8 -5885.93 11279.3
325 2.8555 17.1398 26.423 -5968.78 -11439.1 -13783.2 -8564.09 11346.3 17064.5
345 2.8555 19.9951 26.4232 -10309.3 -5763.81 1006.52 8102.76 3048.74 2921.25
365 2.85549 22.8503 26.4234 -244.75 -31735.2 -25692.7 -6066.65 -3859.83 -26570.3
385 2.85546 25.7056 26.4235 -943.74 -31662 166.627 -7870.88 3418.4 10159.2
405 5.71076 0.00778661 26.4235 -28236 -19917.2 -18317 -24671.5 -22867.3 -18386
425 5.71076 2.86308 26.4234 -5826.09 -1051.61 -3450.04 3749.69 7079.64 -880.774
445 5.71077 5.71844 26.4232 -764.796 -3338.94 55.6057 -2336.48 2500 4309.48
465 5.71078 8.5738 26.423 -1545.1 -38091.4 -15652.7 -8361.8 -3711.58 -21515.4
485 5.71081 11.4292 26.423 -903.451 357.817 -13211.4 320.671 5753.25 2738.29
505 5.71081 14.2845 26.423 -44898.3 -37683.6 -18708.7 41401 31175.1 -22810.1
525 5.71081 17.1398 26.4231 -146.895 -19542.4 -28915.9 2837.46 5490.55 -20049.5
545 5.71079 19.9951 26.4232 -78094.8 -12138.4 -27062.5 -31467.7 -45406.6 -15059.3
565 5.71078 22.8503 26.4234 777.733 -1182.01 814.214 -459.392 1933.96 4625.13
585 5.71076 25.7056 26.4235 -3894.33 -15249 -9627.32 8846.32 -6084.21 16348.3
605 8.56605 28.5608 26.4235 441.773 -14761.1 -8613.99 3139.58 4014.33 -10651
625 8.56606 2.8631 26.4234 -42585.1 52.1864 500.531 6316.28 -4532.38 3143.54
645 8.56607 5.71844 26.4232 -14065.2 732.555 -29467.7 1414.68 -19550 4638.78
665 8.56608 8.5738 26.4231 -33685.4 -12559.7 -2270.62 -21064.7 11236.2 9209.72
685 8.56609 11.4292 26.423 -1519.84 -34046.2 281.019 -7640.62 2071.57 4867.62
705 8.5661 14.2845 26.423 -16538.8 -5237.38 -5813.87 -9726.88 12128.7 10001.7
725 8.56609 17.1398 26.4231 167.101 -2301.96 -36172 -777.136 -784.153 -5919.2
745 8.56608 19.9951 26.4232 -20850 -10721.3 -17421.4 -15572.8 21806.7 18190.5
765 8.56607 22.8503 26.4234 -725.293 -19933.4 1901.15 -5886.35 1781.43 3797.51
785 8.56606 25.7055 26.4235 -11379.7 -12668.4 -10547.1 -13086.1 -11072.4 -10604.5
805 11.4214 0.00779623 26.4235 -15401.4 -25533.9 -21183.2 20772.1 20778.4 -22509.2
825 11.4214 2.86309 26.4234 -11191 -26073.5 -41582.3 -17920.3 24040.4 36254
845 11.4214 5.71845 26.4232 -22094.8 -4975.61 -915.491 -11426.3 7561.66 5812.57
865 11.4214 8.57381 26.4231 -37276 -8446.87 -13706.6 18499.3 -21350.5 14571.2
885 11.4214 11.4292 26.423 -3220.89 -30691.7 -4389.07 10436.9 -2249.04 15731.1
905 11.4214 14.2845 26.423 -1710.06 359.249 -6238.42 195.142 5335.18 3883.46
925 11.4214 17.1398 26.4231 -2207.74 -361.169 732.189 -1308.63 1740.53 4111.48
945 11.4214 19.9951 26.4232 278.287 222.587 889.815 -300.88 1278.85 3464.72
965 11.4214 22.8503 26.4234 -17123.3 -2988.4 -17016.4 -8108.14 19960.5 11319.3
985 11.4213 25.7055 26.4235 -5283.24 -19134.9 -11625 11124.2 -7901.34 18927.6
ITEM: TIMESTEP
251
ITEM: NUMBER OF ATOMS
50
ITEM: BOX BOUNDS xy xz yz pp pp pp
0.0000000000000000e+00 1.4276500000000000e+01 0.0000000000000000e+00
0.0000000000000000e+00 2.8579419500000000e+01 0.0000000000000000e+00
0.0000000000000000e+00 8.7105999999999995e+01 2.6419499999999999e-02
ITEM: ATOMS id x y z c_sz1[1] c_sz1[2] c_sz1[3] c_sz1[4] c_sz1[5] c_sz1[6]
5 14.2766 0.00775731 26.4234 -8848.52 -10010.2 -33982 10214.6 19460 -17805.2
25 9.23702e-05 2.86306 26.4233 -4631.18 -27967.6 -5008.09 12340.9 -4751.02 14927.3
45 0.000105576 5.71841 26.4232 -22176.2 -29517.8 -22420.6 26094.8 -21646.3 28594.8
65 0.000122794 8.57378 26.423 -30993.8 -15246.8 -6606.75 -21960.3 -13123.1 -7007.23
85 14.2766 11.4291 26.4229 -20527.3 -39051.5 -15040.1 28473.7 -16204.8 27742.2
105 14.2766 14.2845 26.4229 -46133.1 -13324.3 -6152.22 24941.3 18192.2 -5232.22
125 14.2766 17.1398 26.423 -26153.9 -23.3222 140.54 1687.88 -1146.6 3993.46
145 0.00013457 19.9951 26.4232 268.703 -18841.6 -36946.4 -1587 3391.97 30351.6
165 0.000117345 22.8503 26.4234 -5586.8 -13106.6 -2259.97 9135.82 5999.18 -4329.59
185 0.000100992 25.7055 26.4235 -20668.2 -617.702 -9507.44 -5238.88 16593.9 5916.58
205 2.8554 0.00775654 26.4235 -8055.31 -1886.48 -2042.41 4901.31 -4777.26 4870.7
225 2.85541 2.86305 26.4233 -1479.52 490.314 -1526.09 797.507 3279.08 1078.18
245 2.85542 5.71841 26.4232 374.675 -17081.9 -20452.8 521.281 598.824 21579.2
265 2.85544 8.57378 26.423 -16312.3 -1438.5 -22321.7 -5449.08 20402.2 9459.79
285 2.85545 11.4291 26.4229 -28164.7 -14945.8 -190.978 20733.2 1564.35 3446.98
305 2.85546 14.2845 26.4229 -12049.1 -10095.1 -5033.31 11130.1 -6294.33 10992.3
325 2.85546 17.1398 26.423 -6085.38 -11559.1 -13902.2 -8614.97 10925 16764.5
345 2.85544 19.9951 26.4232 -10412.9 -5893.95 848.567 8067.88 2526.37 2637.38
365 2.85542 22.8503 26.4234 -381.996 -31889.4 -25894.8 -6087.82 -4421.81 -26893.4
385 2.85541 25.7055 26.4235 -957.923 -31678.5 65.0736 -7922.72 2886.63 9881.49
405 5.71071 0.00776118 26.4235 -28358.4 -20001.9 -18454 -24687.6 -23315.2 -18703.5
425 5.71071 2.86306 26.4234 -5980.59 -1192.24 -3598.46 3725.78 6634.65 -1136.64
445 5.71072 5.71841 26.4232 -954.069 -3500 -148.973 -2287.79 2093.15 4063.56
465 5.71075 8.57377 26.423 -1631.41 -38149.1 -15796 -8332.64 -4055.9 -21770
485 5.71076 11.4291 26.423 -1016.37 254.718 -13368.8 313.304 5385.4 2522.77
505 5.71077 14.2845 26.423 -44983.8 -37805 -18830.8 41378.5 30806.7 -23074.2
525 5.71076 17.1398 26.4231 -210.589 -19617.9 -29059.2 2827.41 5078.6 -20397.3
545 5.71075 19.9951 26.4232 -78176.7 -12247.2 -27287 -31483.4 -45821.7 -15308.5
565 5.71073 22.8503 26.4234 687.329 -1345.11 631.767 -445.298 1478.89 4313.85
585 5.71071 25.7055 26.4235 -3972.64 -15326.3 -9786.13 8868.94 -6575.25 15955.8
605 8.566 28.5608 26.4235 304.954 -14884.2 -8708.85 3127.12 3482.56 -10997.7
625 8.566 2.86306 26.4234 -42765.2 -85.1031 323.066 6330.81 -5094.52 2844.73
645 8.56602 5.71841 26.4232 -14294.7 545.48 -29695.7 1446.03 -20026.3 4385.82
665 8.56604 8.57377 26.423 -33830.3 -12671.3 -2439.66 -21027.4 10824 8970.48
685 8.56606 11.4291 26.423 -1652.82 -34179.1 85.3075 -7640.49 1711.84 4668.77
705 8.56606 14.2845 26.423 -16718.2 -5431.81 -6010.28 -9752.33 11731.8 9674.6
725 8.56606 17.1398 26.4231 -2.15984 -2501.94 -36407.8 -776.147 -1172.34 -6245.68
745 8.56604 19.9951 26.4232 -21019.6 -10888.3 -17672.8 -15578.3 21394.3 17973
765 8.56603 22.8503 26.4234 -900.066 -20112.4 1679.03 -5901.67 1329.15 3505.06
785 8.56601 25.7055 26.4235 -11501.2 -12835.2 -10715.2 -13050.9 -11573.5 -10870.9
805 11.4213 0.00776254 26.4235 -15467.8 -25597.2 -21270.7 20734.2 20188.2 -22787.5
825 11.4213 2.86306 26.4233 -11283 -26177.9 -41726.1 -17920.2 23437.3 35921.8
845 11.4213 5.71841 26.4232 -22287.8 -5178.13 -1146.7 -11365.1 6989.29 5536.4
865 11.4213 8.57378 26.423 -37411.6 -8583.66 -13907.5 18520.5 -21827.1 14307.1
885 11.4213 11.4291 26.423 -3391.71 -30874.2 -4585.86 10428.4 -2677.73 15512.5
905 11.4214 14.2845 26.423 -1904 161.752 -6437.02 174.144 4933.47 3572.9
925 11.4213 17.1398 26.423 -2401.61 -532.937 478.849 -1327.67 1282.2 3748.42
945 11.4213 19.9951 26.4232 50.383 50.8239 598.459 -314.428 854.61 3206.13
965 11.4213 22.8503 26.4234 -17315.6 -3156.81 -17261.1 -8119 19533.3 11093
985 11.4213 25.7055 26.4235 -5396.48 -19258.6 -11789.1 11104.7 -8382.23 18712.5
