Generated by pymatgen.io.lammps.data.LammpsData

1999  atoms

   2  atom types

0.000000 28.553120  xlo xhi
0.000000 28.553120  ylo yhi
0.000000 28.553120  zlo zhi
0.000000 0.000000 0.000000  xy xz yz

Masses

1  55.847000
2  30.973762

Atoms

1     0  1 28.544668  0.064860 28.544668
2     0  1  0.010909  0.003957  2.854432
3     0  1  0.001152  0.001100  5.711489
4     0  1  0.000139  0.000257  8.566414
5     0  1  0.000158 28.553085 11.421549
6     0  1  0.000267 28.552907 14.276776
7     0  1  0.000410 28.552698 17.132027
8     0  1  0.000772 28.552442 19.987310
9     0  1  0.002893 28.552019 22.845824
10    0  1 28.498222 28.466308 25.784620
11    0  1  0.005170  2.863279  0.005170
12    0  1 28.552181  2.855431  2.855122
13    0  1  0.000723  2.855018  5.710388
14    0  1  0.000450  2.855362  8.566200
15    0  1  0.000297  2.855248 11.421563
16    0  1  0.000264  2.855050 14.276945
17    0  1  0.000244  2.854635 17.132605
18    0  1  0.000186  2.853310 19.989364
19    0  1  0.000605  2.848257 22.849551
20    0  1  0.002893  2.851984 25.698909
21    0  1  0.001011  5.711424  0.001011
22    0  1 28.553066  5.711027  2.856090
23    0  1  0.000067  5.710334  5.710705
24    0  1  0.000319  5.710350  8.565980
25    0  1  0.000301  5.710437 11.421523
26    0  1  0.000240  5.710218 14.277119
27    0  1  0.000172  5.709546 17.133088
28    0  1  0.000121  5.708110 19.989698
29    0  1  0.000186  5.708444 22.844498
30    0  1  0.000772  5.710498 25.698486
31    0  1  0.000431  8.565967  0.000431
32    0  1  0.000184  8.566031  2.855778
33    0  1  0.000074  8.565888  5.710932
34    0  1  0.000148  8.565746  8.566061
35    0  1  0.000219  8.565699 11.421471
36    0  1  0.000211  8.565448 14.277118
37    0  1  0.000178  8.564904 17.132904
38    0  1  0.000172  8.564720 19.988262
39    0  1  0.000244  8.565203 22.843173
40    0  1  0.000410  8.565781 25.698230
41    0  1  0.000227 11.421120  0.000227
42    0  1  0.000146 11.421221  2.855547
43    0  1  0.000096 11.421310  5.710792
44    0  1  0.000111 11.421325  8.565984
45    0  1  0.000153 11.421206 11.421318
46    0  1  0.000185 11.420933 14.276875
47    0  1  0.000211 11.420690 17.132360
48    0  1  0.000240 11.420689 19.987590
49    0  1  0.000264 11.420863 22.842758
50    0  1  0.000267 11.421032 25.698021
51    0  1  0.000046 14.276338  0.000046
52    0  1  0.000030 14.276586  2.855286
53    0  1  0.000050 14.276948  5.710395
54    0  1  0.000081 14.277117  8.565507
55    0  1  0.000115 14.276863 11.420945
56    0  1  0.000153 14.276490 14.276602
57    0  1  0.000219 14.276337 17.132109
58    0  1  0.000301 14.276285 19.987371
59    0  1  0.000297 14.276245 22.842560
60    0  1  0.000158 14.276259 25.697843
61    0  1 28.552941 17.131454 28.552941
62    0  1 28.552894 17.132342  2.854753
63    0  1 28.552985 17.133301  5.709360
64    0  1 28.553111 17.133203  8.564605
65    0  1  0.000081 17.132301 11.420691
66    0  1  0.000111 17.131824 14.276483
67    0  1  0.000148 17.131747 17.132062
68    0  1  0.000319 17.131828 19.987458
69    0  1  0.000450 17.131608 22.842446
70    0  1  0.000139 17.131394 25.697551
71    0  1 28.552875 19.984446 28.552875
72    0  1 28.551744 19.990105  2.852599
73    0  1 28.552455 19.991185  5.706623
74    0  1 28.552985 19.988448  8.564507
75    0  1  0.000050 19.987413 11.420860
76    0  1  0.000096 19.987016 14.276498
77    0  1  0.000074 19.986876 17.131920
78    0  1  0.000067 19.987103 19.987474
79    0  1  0.000723 19.987420 22.842790
80    0  1  0.001152 19.986319 25.696708
81    0  1  0.001920 22.797756  0.001920
82    0  1 28.544642 22.858826  2.838982
83    0  1 28.551744 22.845209  5.707703
84    0  1 28.552894 22.843055  8.565466
85    0  1  0.000030 22.842522 11.421222
86    0  1  0.000146 22.842261 14.276587
87    0  1  0.000184 22.842030 17.131777
88    0  1 28.553066 22.841718 19.986781
89    0  1 28.552181 22.842686 22.842377
90    0  1  0.010909 22.843376 25.693851
91    0  1 27.839485 26.411443 27.839485
92    0  1  0.001920 25.695888  2.900052
93    0  1 28.552875 25.698053  5.713362
94    0  1 28.552941 25.697987  8.566354
95    0  1  0.000046 25.697762 11.421470
96    0  1  0.000227 25.697581 14.276688
97    0  1  0.000431 25.697377 17.131841
98    0  1  0.001011 25.696797 19.986384
99    0  1  0.005170 25.692638 22.834529
100   0  1 28.544668 25.706260 25.632948
101   0  1  2.854432  0.003957  0.010909
102   0  1  2.830261 28.531391  2.830261
103   0  1  2.853484 28.551730  5.708315
104   0  1  2.855122 28.552899  8.565801
105   0  1  2.855426 28.552990 11.421365
106   0  1  2.855572 28.552980 14.276714
107   0  1  2.855688 28.552997 17.132045
108   0  1  2.855866  0.000256 19.987540
109   0  1  2.856129  0.002713 22.843667
110   0  1  2.859355  0.000533 25.697275
111   0  1  2.855122  2.855431 28.552181
112   0  1  2.854556  2.855229  2.854556
113   0  1  2.856211  2.854580  5.709663
114   0  1  2.855678  2.855038  8.565758
115   0  1  2.855577  2.855152 11.421374
116   0  1  2.855518  2.855106 14.276840
117   0  1  2.855308  2.854852 17.132468
118   0  1  2.854219  2.853636 19.989210
119   0  1  2.846973  2.845615 22.852193
120   0  1  2.856129  2.854141 25.695095
121   0  1  2.856090  5.711027 28.553066
122   0  1  2.856213  5.711675  2.856213
123   0  1  2.855541  5.710487  5.710606
124   0  1  2.855635  5.710281  8.565785
125   0  1  2.855588  5.710406 11.421372
126   0  1  2.855455  5.710280 14.276991
127   0  1  2.855171  5.709729 17.132903
128   0  1  2.854667  5.708456 19.989352
129   0  1  2.854219  5.708598 22.844172
130   0  1  2.855866  5.710268 25.697552
131   0  1  2.855778  8.566031  0.000184
132   0  1  2.855714  8.566239  2.855714
133   0  1  2.855496  8.566060  5.710894
134   0  1  2.855482  8.565841  8.566003
135   0  1  2.855492  8.565748 11.421374
136   0  1  2.855419  8.565530 14.277001
137   0  1  2.855272  8.565057 17.132751
138   0  1  2.855171  8.564905 19.988079
139   0  1  2.855308  8.565340 22.842956
140   0  1  2.855688  8.565763 25.697931
141   0  1  2.855547 11.421221  0.000146
142   0  1  2.855472 11.421371  2.855472
143   0  1  2.855383 11.421472  5.710715
144   0  1  2.855360 11.421456  8.565910
145   0  1  2.855382 11.421298 11.421237
146   0  1  2.855403 11.421024 14.276784
147   0  1  2.855419 11.420807 17.132278
148   0  1  2.855455 11.420817 19.987528
149   0  1  2.855518 11.420968 22.842702
150   0  1  2.855572 11.421094 25.697948
151   0  1  2.855286 14.276586  0.000030
152   0  1  2.855191 14.276851  2.855191
153   0  1  2.855099 14.277178  5.710242
154   0  1  2.855142 14.277273  8.565380
155   0  1  2.855260 14.276967 11.420841
156   0  1  2.855382 14.276571 14.276510
157   0  1  2.855492 14.276434 17.132060
158   0  1  2.855588 14.276436 19.987402
159   0  1  2.855577 14.276434 22.842656
160   0  1  2.855426 14.276443 25.697938
161   0  1  2.854753 17.132342 28.552894
162   0  1  2.854691 17.132824  2.854691
163   0  1  2.854363 17.133665  5.709084
164   0  1  2.854738 17.133391  8.564417
165   0  1  2.855142 17.132428 11.420535
166   0  1  2.855360 17.131898 14.276352
167   0  1  2.855482 17.131805 17.131967
168   0  1  2.855635 17.132023 19.987527
169   0  1  2.855678 17.132050 22.842770
170   0  1  2.855122 17.132007 25.698029
171   0  1  2.852599 19.990105 28.551744
172   0  1  2.853502 19.990097  2.853502
173   0  1  2.852713 19.991577  5.706231
174   0  1  2.854363 19.988724  8.564143
175   0  1  2.855099 19.987566 11.420630
176   0  1  2.855383 19.987093 14.276336
177   0  1  2.855496 19.986914 17.131748
178   0  1  2.855541 19.987202 19.987321
179   0  1  2.856211 19.988145 22.843228
180   0  1  2.853484 19.989493 25.699198
181   0  1  2.838982 22.858826 28.544642
182   0  1  2.836407 22.861401  2.836407
183   0  1  2.853502 22.844306  5.707711
184   0  1  2.854691 22.843117  8.564984
185   0  1  2.855191 22.842617 11.420957
186   0  1  2.855472 22.842336 14.276437
187   0  1  2.855714 22.842094 17.131569
188   0  1  2.856213 22.841595 19.986133
189   0  1  2.854556 22.843252 22.842579
190   0  1  2.830261 22.867547 25.719537
191   0  1  2.900052 25.695888  0.001920
192   0  1  2.838982 25.706286  2.838982
193   0  1  2.852599 25.699184  5.707703
194   0  1  2.854753 25.698034  8.565466
195   0  1  2.855286 25.697778 11.421222
196   0  1  2.855547 25.697662 14.276587
197   0  1  2.855778 25.697624 17.131777
198   0  1  2.856090 25.697862 19.986781
199   0  1  2.855122 25.698747 22.842377
200   0  1  2.854432 25.686899 25.693851
201   0  1  5.711489  0.001100  0.001152
202   0  1  5.708315 28.551730  2.853484
203   0  1  5.707195 28.552135  5.707195
204   0  1  5.709659 28.552582  8.564807
205   0  1  5.710536 28.552869 11.421031
206   0  1  5.710822 28.553001 14.276647
207   0  1  5.710867 28.553113 17.132147
208   0  1  5.710629  0.000110 19.987830
209   0  1  5.711008 28.552856 22.842903
210   0  1  5.713852  0.001840 25.695968
211   0  1  5.710388  2.855018  0.000723
212   0  1  5.709663  2.854580  2.856211
213   0  1  5.706905  2.851538  5.706905
214   0  1  5.709894  2.854235  8.564943
215   0  1  5.710638  2.854940 11.421127
216   0  1  5.710779  2.855121 14.276773
217   0  1  5.710650  2.855142 17.132407
218   0  1  5.710233  2.855096 19.988259
219   0  1  5.710309  2.854231 22.843577
220   0  1  5.711008  2.854905 25.698072
221   0  1  5.710705  5.710334  0.000067
222   0  1  5.710606  5.710487  2.855541
223   0  1  5.710210  5.709998  5.710210
224   0  1  5.710634  5.710037  8.565543
225   0  1  5.710757  5.710293 11.421225
226   0  1  5.710689  5.710297 14.276895
227   0  1  5.710294  5.709892 17.132762
228   0  1  5.709224  5.708687 19.989121
229   0  1  5.710233  5.709549 22.842712
230   0  1  5.710629  5.709978 25.697698
231   0  1  5.710932  8.565888  0.000074
232   0  1  5.710894  8.566060  2.855496
233   0  1  5.710808  8.566065  5.710808
234   0  1  5.710727  8.565842  8.565927
235   0  1  5.710730  8.565744 11.421294
236   0  1  5.710654  8.565580 14.276908
237   0  1  5.710456  8.565199 17.132609
238   0  1  5.710294  8.565046 19.987916
239   0  1  5.710650  8.565401 22.842666
240   0  1  5.710867  8.565661 25.697815
241   0  1  5.710792 11.421310  0.000096
242   0  1  5.710715 11.421472  2.855383
243   0  1  5.710644 11.421577  5.710644
244   0  1  5.710591 11.421529  8.565850
245   0  1  5.710612 11.421345 11.421185
246   0  1  5.710641 11.421083 14.276725
247   0  1  5.710654 11.420900 17.132228
248   0  1  5.710689 11.420913 19.987511
249   0  1  5.710779 11.421035 22.842687
250   0  1  5.710822 11.421161 25.697927
251   0  1  5.710395 14.276948  0.000050
252   0  1  5.710242 14.277178  2.855099
253   0  1  5.710181 14.277346  5.710181
254   0  1  5.710211 14.277354  8.565324
255   0  1  5.710413 14.277012 11.420796
256   0  1  5.710612 14.276623 14.276463
257   0  1  5.710730 14.276514 17.132064
258   0  1  5.710757 14.276583 19.987515
259   0  1  5.710638 14.276681 22.842868
260   0  1  5.710536 14.276777 25.698059
261   0  1  5.709360 17.133301 28.552985
262   0  1  5.709084 17.133665  2.854363
263   0  1  5.709150 17.133748  5.709150
264   0  1  5.709562 17.133403  8.564405
265   0  1  5.710211 17.132484 11.420454
266   0  1  5.710591 17.131958 14.276279
267   0  1  5.710727 17.131881 17.131966
268   0  1  5.710634 17.132265 19.987771
269   0  1  5.709894 17.132865 22.843573
270   0  1  5.709659 17.133001 25.698346
271   0  1  5.706623 19.991185 28.552455
272   0  1  5.706231 19.991577  2.852713
273   0  1  5.706252 19.991556  5.706252
274   0  1  5.709150 19.988658  8.564060
275   0  1  5.710181 19.987627 11.420462
276   0  1  5.710644 19.987164 14.276231
277   0  1  5.710808 19.987000 17.131743
278   0  1  5.710210 19.987598 19.987810
279   0  1  5.706905 19.990903 22.846270
280   0  1  5.707195 19.990613 25.698793
281   0  1  5.707703 22.845209 28.551744
282   0  1  5.707711 22.844306  2.853502
283   0  1  5.706231 22.845095  5.706231
284   0  1  5.709084 22.843445  8.564143
285   0  1  5.710242 22.842709 11.420630
286   0  1  5.710715 22.842425 14.276336
287   0  1  5.710894 22.842312 17.131748
288   0  1  5.710606 22.842267 19.987321
289   0  1  5.709663 22.841597 22.843228
290   0  1  5.708315 22.844324 25.699198
291   0  1  5.713362 25.698053 28.552875
292   0  1  5.707703 25.699184  2.852599
293   0  1  5.706623 25.698473  5.706623
294   0  1  5.709360 25.697943  8.564507
295   0  1  5.710395 25.697758 11.420860
296   0  1  5.710792 25.697712 14.276498
297   0  1  5.710932 25.697734 17.131920
298   0  1  5.710705 25.697741 19.987474
299   0  1  5.710388 25.697085 22.842790
300   0  1  5.711489 25.696656 25.696708
301   0  1  8.566414  0.000257  0.000139
302   0  1  8.565801 28.552899  2.855122
303   0  1  8.564807 28.552582  5.709659
304   0  1  8.564831 28.552659  8.564831
305   0  1  8.565638 28.552836 11.420849
306   0  1  8.566038 28.552956 14.276614
307   0  1  8.566093 28.552999 17.132181
308   0  1  8.566136 28.552916 19.987488
309   0  1  8.566538 28.552896 22.842422
310   0  1  8.566842  0.000253 25.697555
311   0  1  8.566200  2.855362  0.000450
312   0  1  8.565758  2.855038  2.855678
313   0  1  8.564943  2.854235  5.709894
314   0  1  8.565055  2.854524  8.565055
315   0  1  8.565743  2.854885 11.420982
316   0  1  8.566049  2.855079 14.276723
317   0  1  8.566060  2.855132 17.132301
318   0  1  8.566163  2.855102 19.987580
319   0  1  8.566668  2.855326 22.842482
320   0  1  8.566538  2.855386 25.698032
321   0  1  8.565980  5.710350  0.000319
322   0  1  8.565785  5.710281  2.855635
323   0  1  8.565543  5.710037  5.710634
324   0  1  8.565306  5.709711  8.565306
325   0  1  8.565828  5.710145 11.421095
326   0  1  8.566009  5.710304 14.276808
327   0  1  8.565931  5.710238 17.132423
328   0  1  8.565902  5.710034 19.987774
329   0  1  8.566163  5.710228 22.842706
330   0  1  8.566136  5.710320 25.698012
331   0  1  8.566061  8.565746  0.000148
332   0  1  8.566003  8.565841  2.855482
333   0  1  8.565927  8.565842  5.710727
334   0  1  8.565846  8.565705  8.565846
335   0  1  8.565947  8.565675 11.421245
336   0  1  8.565955  8.565593 14.276847
337   0  1  8.565818  8.565351 17.132457
338   0  1  8.565931  8.565385 19.987570
339   0  1  8.566060  8.565507 22.842676
340   0  1  8.566093  8.565627 25.697929
341   0  1  8.565984 11.421325  0.000111
342   0  1  8.565910 11.421456  2.855360
343   0  1  8.565850 11.421529  5.710591
344   0  1  8.565834 11.421477  8.565834
345   0  1  8.565878 11.421307 11.421185
346   0  1  8.565934 11.421093 14.276715
347   0  1  8.565955 11.420961 17.132215
348   0  1  8.566009 11.421000 19.987504
349   0  1  8.566049 11.421085 22.842729
350   0  1  8.566038 11.421194 25.697972
351   0  1  8.565507 14.277117  0.000081
352   0  1  8.565380 14.277273  2.855142
353   0  1  8.565324 14.277354  5.710211
354   0  1  8.565412 14.277258  8.565412
355   0  1  8.565649 14.276947 11.420861
356   0  1  8.565878 14.276623 14.276501
357   0  1  8.565947 14.276563 17.132133
358   0  1  8.565828 14.276713 19.987663
359   0  1  8.565743 14.276826 22.842923
360   0  1  8.565638 14.276959 25.698092
361   0  1  8.564605 17.133203 28.553111
362   0  1  8.564417 17.133391  2.854738
363   0  1  8.564405 17.133403  5.709562
364   0  1  8.564669 17.133139  8.564669
365   0  1  8.565412 17.132396 11.420550
366   0  1  8.565834 17.131974 14.276331
367   0  1  8.565846 17.131962 17.132103
368   0  1  8.565306 17.132502 19.988097
369   0  1  8.565055 17.132753 22.843284
370   0  1  8.564831 17.132977 25.698269
371   0  1  8.564507 19.988448 28.552985
372   0  1  8.564143 19.988724  2.854363
373   0  1  8.564060 19.988658  5.709150
374   0  1  8.564405 19.988246  8.564405
375   0  1  8.565324 19.987597 11.420454
376   0  1  8.565850 19.987217 14.276279
377   0  1  8.565927 19.987081 17.131966
378   0  1  8.565543 19.987174 19.987771
379   0  1  8.564943 19.987914 22.843573
380   0  1  8.564807 19.988149 25.698346
381   0  1  8.565466 22.843055 28.552894
382   0  1  8.564984 22.843117  2.854691
383   0  1  8.564143 22.843445  5.709084
384   0  1  8.564417 22.843070  8.564417
385   0  1  8.565380 22.842666 11.420535
386   0  1  8.565910 22.842448 14.276352
387   0  1  8.566003 22.842326 17.131967
388   0  1  8.565785 22.842173 19.987527
389   0  1  8.565758 22.842130 22.842770
390   0  1  8.565801 22.842686 25.698029
391   0  1  8.566354 25.697987 28.552941
392   0  1  8.565466 25.698034  2.854753
393   0  1  8.564507 25.697943  5.709360
394   0  1  8.564605 25.697817  8.564605
395   0  1  8.565507 25.697727 11.420691
396   0  1  8.565984 25.697697 14.276483
397   0  1  8.566061 25.697660 17.132062
398   0  1  8.565980 25.697489 19.987458
399   0  1  8.566200 25.697358 22.842446
400   0  1  8.566414 25.697669 25.697551
401   0  1 11.421549 28.553085  0.000158
402   0  1 11.421365 28.552990  2.855426
403   0  1 11.421031 28.552869  5.710536
404   0  1 11.420849 28.552836  8.565638
405   0  1 11.421061 28.552862 11.421061
406   0  1 11.421402 28.552889 14.276702
407   0  1 11.421573 28.552873 17.132177
408   0  1 11.421678 28.552844 19.987401
409   0  1 11.421739 28.552891 22.842586
410   0  1 11.421682 28.553029 25.697899
411   0  1 11.421563  2.855248  0.000297
412   0  1 11.421374  2.855152  2.855577
413   0  1 11.421127  2.854940  5.710638
414   0  1 11.420982  2.854885  8.565743
415   0  1 11.421162  2.854945 11.421162
416   0  1 11.421462  2.855007 14.276785
417   0  1 11.421644  2.855019 17.132243
418   0  1 11.421790  2.855037 19.987464
419   0  1 11.421868  2.855149 22.842659
420   0  1 11.421739  2.855222 25.698037
421   0  1 11.421523  5.710437  0.000301
422   0  1 11.421372  5.710406  2.855588
423   0  1 11.421225  5.710293  5.710757
424   0  1 11.421095  5.710145  8.565828
425   0  1 11.421236  5.710208 11.421236
426   0  1 11.421472  5.710261 14.276834
427   0  1 11.421635  5.710254 17.132290
428   0  1 11.421774  5.710278 19.987530
429   0  1 11.421790  5.710344 22.842771
430   0  1 11.421678  5.710407 25.698084
431   0  1 11.421471  8.565699  0.000219
432   0  1 11.421374  8.565748  2.855492
433   0  1 11.421294  8.565744  5.710730
434   0  1 11.421245  8.565675  8.565947
435   0  1 11.421278  8.565604 11.421278
436   0  1 11.421423  8.565582 14.276834
437   0  1 11.421528  8.565509 17.132299
438   0  1 11.421635  8.565518 19.987554
439   0  1 11.421644  8.565565 22.842789
440   0  1 11.421573  8.565631 25.698055
441   0  1 11.421318 11.421206  0.000153
442   0  1 11.421237 11.421298  2.855382
443   0  1 11.421185 11.421345  5.710612
444   0  1 11.421185 11.421307  8.565878
445   0  1 11.421246 11.421184 11.421246
446   0  1 11.421343 11.421045 14.276763
447   0  1 11.421423 11.420974 17.132226
448   0  1 11.421472 11.420974 19.987547
449   0  1 11.421462 11.421023 22.842801
450   0  1 11.421402 11.421106 25.698039
451   0  1 11.420945 14.276863  0.000115
452   0  1 11.420841 14.276967  2.855260
453   0  1 11.420796 14.277012  5.710413
454   0  1 11.420861 14.276947  8.565649
455   0  1 11.421040 14.276768 11.421040
456   0  1 11.421246 14.276562 14.276624
457   0  1 11.421278 14.276530 17.132204
458   0  1 11.421236 14.276572 19.987600
459   0  1 11.421162 14.276646 22.842863
460   0  1 11.421061 14.276747 25.698066
461   0  1 11.420691 17.132301  0.000081
462   0  1 11.420535 17.132428  2.855142
463   0  1 11.420454 17.132484  5.710211
464   0  1 11.420550 17.132396  8.565412
465   0  1 11.420861 17.132159 11.420861
466   0  1 11.421185 17.131930 14.276501
467   0  1 11.421245 17.131861 17.132133
468   0  1 11.421095 17.131980 19.987663
469   0  1 11.420982 17.132065 22.842923
470   0  1 11.420849 17.132170 25.698092
471   0  1 11.420860 19.987413  0.000050
472   0  1 11.420630 19.987566  2.855099
473   0  1 11.420462 19.987627  5.710181
474   0  1 11.420454 19.987597  8.565324
475   0  1 11.420796 19.987395 11.420796
476   0  1 11.421185 19.987196 14.276463
477   0  1 11.421294 19.987078 17.132064
478   0  1 11.421225 19.987051 19.987515
479   0  1 11.421127 19.987170 22.842868
480   0  1 11.421031 19.987272 25.698059
481   0  1 11.421222 22.842522  0.000030
482   0  1 11.420957 22.842617  2.855191
483   0  1 11.420630 22.842709  5.710242
484   0  1 11.420535 22.842666  8.565380
485   0  1 11.420841 22.842548 11.420841
486   0  1 11.421237 22.842426 14.276510
487   0  1 11.421374 22.842316 17.132060
488   0  1 11.421372 22.842220 19.987402
489   0  1 11.421374 22.842231 22.842656
490   0  1 11.421365 22.842382 25.697938
491   0  1 11.421470 25.697762  0.000046
492   0  1 11.421222 25.697778  2.855286
493   0  1 11.420860 25.697758  5.710395
494   0  1 11.420691 25.697727  8.565507
495   0  1 11.420945 25.697693 11.420945
496   0  1 11.421318 25.697655 14.276602
497   0  1 11.421471 25.697589 17.132109
498   0  1 11.421523 25.697507 19.987371
499   0  1 11.421563 25.697511 22.842560
500   0  1 11.421549 25.697650 25.697843
501   0  1 14.276776 28.552907  0.000267
502   0  1 14.276714 28.552980  2.855572
503   0  1 14.276647 28.553001  5.710822
504   0  1 14.276614 28.552956  8.566038
505   0  1 14.276702 28.552889 11.421402
506   0  1 14.276971 28.552832 14.276971
507   0  1 14.277244 28.552784 17.132457
508   0  1 14.277282 28.552757 19.987692
509   0  1 14.277114 28.552775 22.842856
510   0  1 14.276912 28.552839 25.698089
511   0  1 14.276945  2.855050  0.000264
512   0  1 14.276840  2.855106  2.855518
513   0  1 14.276773  2.855121  5.710779
514   0  1 14.276723  2.855079  8.566049
515   0  1 14.276785  2.855007 11.421462
516   0  1 14.277043  2.854922 14.277043
517   0  1 14.277342  2.854837 17.132534
518   0  1 14.277434  2.854800 19.987789
519   0  1 14.277309  2.854864 22.842944
520   0  1 14.277114  2.854952 25.698153
521   0  1 14.277119  5.710218  0.000240
522   0  1 14.276991  5.710280  2.855455
523   0  1 14.276895  5.710297  5.710689
524   0  1 14.276808  5.710304  8.566009
525   0  1 14.276834  5.710261 11.421472
526   0  1 14.277059  5.710161 14.277059
527   0  1 14.277350  5.710036 17.132548
528   0  1 14.277481  5.709990 19.987818
529   0  1 14.277434  5.710019 22.843008
530   0  1 14.277282  5.710116 25.698171
531   0  1 14.277118  8.565448  0.000211
532   0  1 14.277001  8.565530  2.855419
533   0  1 14.276908  8.565580  5.710654
534   0  1 14.276847  8.565593  8.565955
535   0  1 14.276834  8.565582 11.421423
536   0  1 14.276993  8.565484 14.276993
537   0  1 14.277221  8.565336 17.132472
538   0  1 14.277350  8.565260 19.987772
539   0  1 14.277342  8.565274 22.842971
540   0  1 14.277244  8.565351 25.698144
541   0  1 14.276875 11.420933  0.000185
542   0  1 14.276784 11.421024  2.855403
543   0  1 14.276725 11.421083  5.710641
544   0  1 14.276715 11.421093  8.565934
545   0  1 14.276763 11.421045 11.421343
546   0  1 14.276870 11.420938 14.276870
547   0  1 14.276993 11.420815 17.132324
548   0  1 14.277059 11.420749 19.987647
549   0  1 14.277043 11.420765 22.842886
550   0  1 14.276971 11.420837 25.698096
551   0  1 14.276602 14.276490  0.000153
552   0  1 14.276510 14.276571  2.855382
553   0  1 14.276463 14.276623  5.710612
554   0  1 14.276501 14.276623  8.565878
555   0  1 14.276624 14.276562 11.421246
556   0  1 14.276763 14.276465 14.276763
557   0  1 14.276834 14.276385 17.132226
558   0  1 14.276834 14.276336 19.987547
559   0  1 14.276785 14.276346 22.842801
560   0  1 14.276702 14.276406 25.698039
561   0  1 14.276483 17.131824  0.000111
562   0  1 14.276352 17.131898  2.855360
563   0  1 14.276279 17.131958  5.710591
564   0  1 14.276331 17.131974  8.565834
565   0  1 14.276501 17.131930 11.421185
566   0  1 14.276715 17.131874 14.276715
567   0  1 14.276847 17.131853 17.132215
568   0  1 14.276808 17.131799 19.987504
569   0  1 14.276723 17.131759 22.842729
570   0  1 14.276614 17.131770 25.697972
571   0  1 14.276498 19.987016  0.000096
572   0  1 14.276336 19.987093  2.855383
573   0  1 14.276231 19.987164  5.710644
574   0  1 14.276279 19.987217  8.565850
575   0  1 14.276463 19.987196 11.421185
576   0  1 14.276725 19.987167 14.276725
577   0  1 14.276908 19.987154 17.132228
578   0  1 14.276895 19.987119 19.987511
579   0  1 14.276773 19.987029 22.842687
580   0  1 14.276647 19.986986 25.697927
581   0  1 14.276587 22.842261  0.000146
582   0  1 14.276437 22.842336  2.855472
583   0  1 14.276336 22.842425  5.710715
584   0  1 14.276352 22.842448  8.565910
585   0  1 14.276510 22.842426 11.421237
586   0  1 14.276784 22.842405 14.276784
587   0  1 14.277001 22.842389 17.132278
588   0  1 14.276991 22.842353 19.987528
589   0  1 14.276840 22.842290 22.842702
590   0  1 14.276714 22.842236 25.697948
591   0  1 14.276688 25.697581  0.000227
592   0  1 14.276587 25.697662  2.855547
593   0  1 14.276498 25.697712  5.710792
594   0  1 14.276483 25.697697  8.565984
595   0  1 14.276602 25.697655 11.421318
596   0  1 14.276875 25.697623 14.276875
597   0  1 14.277118 25.697597 17.132360
598   0  1 14.277119 25.697568 19.987590
599   0  1 14.276945 25.697544 22.842758
600   0  1 14.276776 25.697541 25.698021
601   0  1 17.132027 28.552698  0.000410
602   0  1 17.132045 28.552997  2.855688
603   0  1 17.132147 28.553113  5.710867
604   0  1 17.132181 28.552999  8.566093
605   0  1 17.132177 28.552873 11.421573
606   0  1 17.132457 28.552784 14.277244
607   0  1 17.133057 28.552658 17.133057
608   0  1 17.133317 28.552528 19.988465
609   0  1 17.132908 28.552478 22.843394
610   0  1 17.132339 28.552599 25.698329
611   0  1 17.132605  2.854635  0.000244
612   0  1 17.132468  2.854852  2.855308
613   0  1 17.132407  2.855142  5.710650
614   0  1 17.132301  2.855132  8.566060
615   0  1 17.132243  2.855019 11.421644
616   0  1 17.132534  2.854837 14.277342
617   0  1 17.133157  2.854538 17.133157
618   0  1 17.133506  2.854256 19.988601
619   0  1 17.133223  2.854320 22.843488
620   0  1 17.132908  2.854414 25.698450
621   0  1 17.133088  5.709546  0.000172
622   0  1 17.132903  5.709729  2.855171
623   0  1 17.132762  5.709892  5.710294
624   0  1 17.132423  5.710238  8.565931
625   0  1 17.132290  5.710254 11.421635
626   0  1 17.132548  5.710036 14.277350
627   0  1 17.133115  5.709626 17.133115
628   0  1 17.133481  5.709287 19.988521
629   0  1 17.133506  5.709207 22.843552
630   0  1 17.133317  5.709343 25.698400
631   0  1 17.132904  8.564904  0.000178
632   0  1 17.132751  8.565057  2.855272
633   0  1 17.132609  8.565199  5.710456
634   0  1 17.132457  8.565351  8.565818
635   0  1 17.132299  8.565509 11.421528
636   0  1 17.132472  8.565336 14.277221
637   0  1 17.132882  8.564926 17.132882
638   0  1 17.133115  8.564693 19.988182
639   0  1 17.133157  8.564651 22.843270
640   0  1 17.133057  8.564751 25.698270
641   0  1 17.132360 11.420690  0.000211
642   0  1 17.132278 11.420807  2.855419
643   0  1 17.132228 11.420900  5.710654
644   0  1 17.132215 11.420961  8.565955
645   0  1 17.132226 11.420974 11.421423
646   0  1 17.132324 11.420815 14.276993
647   0  1 17.132472 11.420587 17.132472
648   0  1 17.132548 11.420458 19.987772
649   0  1 17.132534 11.420466 22.842971
650   0  1 17.132457 11.420564 25.698144
651   0  1 17.132109 14.276337  0.000219
652   0  1 17.132060 14.276434  2.855492
653   0  1 17.132064 14.276514  5.710730
654   0  1 17.132133 14.276563  8.565947
655   0  1 17.132204 14.276530 11.421278
656   0  1 17.132226 14.276385 14.276834
657   0  1 17.132299 14.276280 17.132299
658   0  1 17.132290 14.276173 19.987554
659   0  1 17.132243 14.276164 22.842789
660   0  1 17.132177 14.276235 25.698055
661   0  1 17.132062 17.131747  0.000148
662   0  1 17.131967 17.131805  2.855482
663   0  1 17.131966 17.131881  5.710727
664   0  1 17.132103 17.131962  8.565846
665   0  1 17.132133 17.131861 11.421245
666   0  1 17.132215 17.131853 14.276847
667   0  1 17.132457 17.131990 17.132457
668   0  1 17.132423 17.131877 19.987570
669   0  1 17.132301 17.131748 22.842676
670   0  1 17.132181 17.131715 25.697929
671   0  1 17.131920 19.986876  0.000074
672   0  1 17.131748 19.986914  2.855496
673   0  1 17.131743 19.987000  5.710808
674   0  1 17.131966 19.987081  8.565927
675   0  1 17.132064 19.987078 11.421294
676   0  1 17.132228 19.987154 14.276908
677   0  1 17.132609 19.987352 17.132609
678   0  1 17.132762 19.987514 19.987916
679   0  1 17.132407 19.987158 22.842666
680   0  1 17.132147 19.986941 25.697815
681   0  1 17.131777 22.842030  0.000184
682   0  1 17.131569 22.842094  2.855714
683   0  1 17.131748 22.842312  5.710894
684   0  1 17.131967 22.842326  8.566003
685   0  1 17.132060 22.842316 11.421374
686   0  1 17.132278 22.842389 14.277001
687   0  1 17.132751 22.842536 17.132751
688   0  1 17.132903 22.842637 19.988079
689   0  1 17.132468 22.842500 22.842956
690   0  1 17.132045 22.842120 25.697931
691   0  1 17.131841 25.697377  0.000431
692   0  1 17.131777 25.697624  2.855778
693   0  1 17.131920 25.697734  5.710932
694   0  1 17.132062 25.697660  8.566061
695   0  1 17.132109 25.697589 11.421471
696   0  1 17.132360 25.697597 14.277118
697   0  1 17.132904 25.697630 17.132904
698   0  1 17.133088 25.697636 19.988262
699   0  1 17.132605 25.697564 22.843173
700   0  1 17.132027 25.697398 25.698230
701   0  1 19.987310 28.552442  0.000772
702   0  1 19.987540  0.000256  2.855866
703   0  1 19.987830  0.000110  5.710629
704   0  1 19.987488 28.552916  8.566136
705   0  1 19.987401 28.552844 11.421678
706   0  1 19.987692 28.552757 14.277282
707   0  1 19.988465 28.552528 17.133317
708   0  1 19.990023 28.552017 19.990023
709   0  1 19.989982 28.551498 22.844981
710   0  1 19.988031 28.552439 25.698489
711   0  1 19.989364  2.853310  0.000186
712   0  1 19.989210  2.853636  2.854219
713   0  1 19.988259  2.855096  5.710233
714   0  1 19.987580  2.855102  8.566163
715   0  1 19.987464  2.855037 11.421790
716   0  1 19.987789  2.854800 14.277434
717   0  1 19.988601  2.854256 17.133506
718   0  1 19.990148  2.853242 19.990148
719   0  1 19.990165  2.852963 22.844845
720   0  1 19.989982  2.852827 25.699430
721   0  1 19.989698  5.708110  0.000121
722   0  1 19.989352  5.708456  2.854667
723   0  1 19.989121  5.708687  5.709224
724   0  1 19.987774  5.710034  8.565902
725   0  1 19.987530  5.710278 11.421774