Generated by pymatgen.io.lammps.data.LammpsData

168  atoms

  2  atom types

0.000000 28.553120  xlo xhi
0.000000 28.553120  ylo yhi
0.000000 28.553120  zlo zhi
0.000000 0.000000 0.000000  xy xz yz

Masses

1  55.847000
2  30.973762

Atoms

1     1  1 28.534009 28.575659 28.534009
2     1  1  0.011060  0.005280  2.859116
3     1  1  0.001648  0.001038  5.711755
8     1  1 -0.000136 -0.000155 19.987499
9     1  1  0.001820 -0.002212 22.848401
10    1  1 28.499287 28.456913 25.794015
11    1  1  0.004198  2.859134  0.004198
12    1  1 28.552355  2.853083  2.853321
19    1  1 28.552142  2.848970 22.848838
20    1  1  0.001820  2.849407 25.700020
21    1  1  0.000176  5.710749  0.000176
30    1  1 -0.000136  5.710309 25.697963
71    1  1  0.000497 19.985139  0.000497
80    1  1  0.001648 19.986053 25.696770
81    1  1 -0.005111 22.799963 -0.005111
82    1  1 28.554975 22.858417  2.839391
89    1  1 28.552355 22.844487 22.844725
90    1  1  0.011060 22.838692 25.692528
91    1  1 28.050233 26.200695 28.050233
92    1  1 -0.005111 25.702919  2.897844
93    1  1  0.000497 25.697311  5.712669
98    1  1  0.000176 25.697632 19.987059
99    1  1  0.004198 25.693610 22.838674
100   1  1 28.534008 25.716920 25.675269
101   1  1  2.859116  0.005280  0.011060
102   1  1  2.839919 28.538497  2.839919
109   1  1  2.853463 28.555222 22.845112
110   1  1  2.863465  0.005669 25.692139
111   1  1  2.853321  2.853083 28.552355
112   1  1  2.852260  2.851426  2.852260
119   1  1  2.845327  2.846304 22.851504
120   1  1  2.853463  2.852696 25.695706
181   1  1  2.839391 22.858417 28.554975
182   1  1  2.830021 22.867787  2.830021
189   1  1  2.852260 22.845548 22.846382
190   1  1  2.839919 22.857889 25.712431
191   1  1  2.897845 25.702919 -0.005111
192   1  1  2.839391 25.695953  2.839391
199   1  1  2.853321 25.698573 22.844725
200   1  1  2.859116 25.686748 25.692528
201   1  1  5.711755  0.001038  0.001648
210   1  1  5.713792  0.002522 25.695286
291   1  1  5.712669 25.697311  0.000497
300   1  1  5.711755 25.696160 25.696770
701   1  1 19.987499 -0.000155 -0.000136
710   1  1 19.987873 -0.000033 25.697841
791   1  1 19.987059 25.697632  0.000176
800   1  1 19.987499 25.697944 25.697963
801   1  1 22.848401 -0.002212  0.001820
802   1  1 22.845112 28.555222  2.853463
809   1  1 22.850458 28.548980 22.850458
810   1  1 22.846899 -0.000083 25.697891
811   1  1 22.848838  2.848970 28.552142
812   1  1 22.851504  2.846304  2.845327
819   1  1 22.850986  2.846822 22.850986
820   1  1 22.850458  2.847350 25.701948
881   1  1 22.844725 22.844487 28.552355
882   1  1 22.846382 22.845548  2.852260
889   1  1 22.851504 22.852481 22.851504
890   1  1 22.845112 22.844345 25.695706
891   1  1 22.838674 25.693610  0.004198
892   1  1 22.844725 25.698573  2.853321
899   1  1 22.848838 25.698786 22.848838
900   1  1 22.848401 25.695988 25.700020
901   1  1 25.794016 28.456912 28.499286
902   1  1 25.692139  0.005669  2.863465
903   1  1 25.695286  0.002522  5.713792
908   1  1 25.697841 -0.000033 19.987873
909   1  1 25.697891 -0.000083 22.846899
910   1  1 25.750060 28.500868 25.750060
911   1  1 25.700020  2.849407  0.001820
912   1  1 25.695706  2.852696  2.853463
919   1  1 25.701948  2.847350 22.850458
920   1  1 25.697891  2.850909 25.697891
921   1  1 25.697963  5.710309 -0.000136
930   1  1 25.697841  5.709935 25.697841
971   1  1 25.696770 19.986053  0.001648
980   1  1 25.695286 19.984016 25.695286
981   1  1 25.692528 22.838692  0.011060
982   1  1 25.712431 22.857889  2.839919
989   1  1 25.695706 22.844345 22.845112
990   1  1 25.692139 22.834343 25.692139
991   1  1 25.675269 25.716919 28.534009
992   1  1 25.692528 25.686748  2.859116
993   1  1 25.696770 25.696160  5.711755
998   1  1 25.697963 25.697944 19.987499
999   1  1 25.700020 25.695988 22.848401
1000  1  1 25.794015 25.751641 25.794015
1001  1  1  1.422652  1.423117  1.422652
1002  1  1  1.430842  1.428097  4.283009
1008  1  1  1.425201  1.425751 21.417655
1009  1  1  1.403480  1.401541 24.296267
1010  1  1  1.429274  1.422444 27.119063
1011  1  1  1.428201  4.283254  1.428201
1019  1  1  1.425201  4.280153 24.272057
1020  1  1  1.427467  4.282020 27.124669
1071  1  1  1.427559 21.421842  1.427559
1079  1  1  1.430842 21.414799 24.269712
1080  1  1  1.430507 21.414879 27.123796
1081  1  1  1.324955 24.372853  1.324955
1082  1  1  1.427559 24.270249  4.275966
1088  1  1  1.428201 24.269607 21.414554
1089  1  1  1.422652 24.275156 24.274691
1090  1  1  1.372339 24.325469 27.162194
1091  1  1  1.372340 27.088734  1.372339
1092  1  1  1.430507 27.127132  4.282929
1098  1  1  1.427467 27.126258 21.415788
1099  1  1  1.429274 27.131865 24.275364
1100  1  1  1.512156 27.127931 27.122997
1101  1  1  4.283009  1.428097  1.430842
1109  1  1  4.283120  1.428443 24.269365
1110  1  1  4.283857  1.427730 27.126413
1181  1  1  4.275966 24.270249  1.427559
1189  1  1  4.283009 24.266966 24.269712
1190  1  1  4.282929 24.267301 27.123796
1191  1  1  4.282929 27.127132  1.430507
1199  1  1  4.283857 27.124515 24.270078
1200  1  1  4.294826 27.131818 27.119110
1701  1  1 21.417656  1.425751  1.425201
1709  1  1 21.417949  1.425861 24.271947
1710  1  1 21.418215  1.425034 27.126370
1781  1  1 21.414554 24.269607  1.428201
1789  1  1 21.417655 24.272607 24.272057
1790  1  1 21.415788 24.270341 27.124669
1791  1  1 21.415788 27.126259  1.427467
1799  1  1 21.418215 27.124559 24.272774
1800  1  1 21.413501 27.125163 27.125765
1801  1  1 24.296267  1.401541  1.403480
1802  1  1 24.269365  1.428443  4.283120
1808  1  1 24.271947  1.425861 21.417949
1809  1  1 24.291149  1.406659 24.291149
1810  1  1 24.289719  1.408089 27.135043
1811  1  1 24.272057  4.280152  1.425201
1819  1  1 24.271947  4.279859 24.271947
1820  1  1 24.272774  4.279593 27.126370
1871  1  1 24.269711 21.414799  1.430842
1879  1  1 24.269365 21.414688 24.269365
1880  1  1 24.270078 21.413951 27.126413
1881  1  1 24.274691 24.275156  1.422652
1882  1  1 24.269711 24.266966  4.283009
1888  1  1 24.272057 24.272607 21.417655
1889  1  1 24.296267 24.294328 24.296267
1890  1  1 24.275364 24.268534 27.119063
1891  1  1 24.275364 27.131865  1.429274
1892  1  1 24.270078 27.124515  4.283857
1898  1  1 24.272774 27.124558 21.418215
1899  1  1 24.289719 27.115885 24.289719
1900  1  1 24.232977 27.123143 27.127785
1901  1  1 27.119063  1.422444  1.429274
1902  1  1 27.126413  1.427730  4.283857
1908  1  1 27.126370  1.425034 21.418215
1909  1  1 27.135043  1.408089 24.289719
1910  1  1 27.127785  1.464831 27.127785
1911  1  1 27.124669  4.282020  1.427467
1919  1  1 27.126369  4.279593 24.272774
1920  1  1 27.125765  4.284307 27.125765
1971  1  1 27.123796 21.414879  1.430507
1979  1  1 27.126413 21.413951 24.270078
1980  1  1 27.119110 21.402982 27.119110
1981  1  1 27.162193 24.325468  1.372340
1982  1  1 27.123796 24.267301  4.282929
1988  1  1 27.124669 24.270341 21.415788
1989  1  1 27.119063 24.268534 24.275364
1990  1  1 27.122997 24.185652 27.122997
1991  1  1 27.122997 27.127931  1.512156
1992  1  1 27.119110 27.131818  4.294826
1998  1  1 27.125765 27.125163 21.413501
1999  1  1 27.127785 27.123143 24.232977

