Generated by pymatgen.io.lammps.data.LammpsData

1166  atoms

   1  atom types

0.000000 57.106000  xlo xhi
0.000000 57.106000  ylo yhi
0.000000 57.106000  zlo zhi
0.000000 0.000000 0.000000  xy xz yz

Masses

1  55.847

Atoms

4334   1  1 15.700018 24.267737 18.555341
4336   1  1 15.699581 24.266715 21.410237
4338   1  1 15.700660 24.266267 24.266549
4340   1  1 15.702198 24.267300 27.123636
4374   1  1 15.700400 27.124767 18.555717
4376   1  1 15.700281 27.124368 21.410703
4377   1  1 14.274155 25.696011 22.839613
4378   1  1 15.701783 27.123880 24.266765
4380   1  1 15.703673 27.123832 27.122976
4382   1  1 15.704629 27.124486 29.979459
4414   1  1 15.700624 29.981594 18.555996
4415   1  1 14.273641 28.553188 19.984165
4416   1  1 15.700665 29.981723 21.411183
4417   1  1 14.274642 28.553002 22.839973
4418   1  1 15.702262 29.981341 24.267378
4419   1  1 14.276119 28.552717 25.695826
4420   1  1 15.704247 29.980532 27.123523
4422   1  1 15.705421 29.979798 29.979486
4424   1  1 15.704922 29.980474 32.835377
4454   1  1 15.700632 32.838217 18.556115
4456   1  1 15.700665 32.838678 21.411485
4457   1  1 14.274646 31.409762 22.840263
4458   1  1 15.702038 32.838227 24.267953
4460   1  1 15.703715 32.837005 27.124379
4462   1  1 15.704519 32.836273 29.979760
4464   1  1 15.704341 32.836549 32.835050
4500   1  1 15.702487 35.693678 27.124625
4502   1  1 15.703070 35.693114 29.980184
5094   1  1 18.554560 21.409452 18.554149
5096   1  1 18.551409 21.406084 21.406839
5098   1  1 18.552489 21.406941 24.265652
5100   1  1 18.553960 21.408185 27.123601
5102   1  1 18.554759 21.408753 29.979946
5104   1  1 18.555071 21.408837 32.836020
5106   1  1 18.554884 21.408505 35.693159
5132   1  1 18.556803 24.268212 15.701575
5133   1  1 17.128014 22.839426 17.127951
5134   1  1 18.554600 24.266646 18.554469
5135   1  1 17.125827 22.837455 19.981188
5136   1  1 18.551080 24.263949 21.406222
5137   1  1 17.125153 22.835716 22.836467
5138   1  1 18.550544 24.261129 24.261714
5139   1  1 17.127112 22.837045 25.695027
5140   1  1 18.554607 24.264510 27.123030
5141   1  1 17.128254 22.838085 28.551850
5142   1  1 18.555873 24.265797 29.979556
5143   1  1 17.128757 22.838464 31.407763
5144   1  1 18.555782 24.265203 32.835811
5145   1  1 17.128778 22.838315 34.263974
5146   1  1 18.553032 24.262660 35.696438
5172   1  1 18.556995 27.124750 15.701918
5173   1  1 17.128308 25.696315 17.128354
5174   1  1 18.555060 27.124276 18.555070
5175   1  1 17.126353 25.695351 19.981615
5176   1  1 18.552123 27.123479 21.407166
5177   1  1 17.126112 25.694103 22.836520
5178   1  1 18.552592 27.121840 24.262384
5179   1  1 17.128263 25.693530 25.693408
5180   1  1 18.556760 27.120779 27.119954
5181   1  1 17.130480 25.695411 28.551274
5182   1  1 18.559466 27.123534 29.979326
5183   1  1 17.130972 25.695734 31.407622
5184   1  1 18.557872 27.121235 32.838531
5185   1  1 17.129840 25.694518 34.265067
5186   1  1 18.554814 27.122644 35.695803
5188   1  1 18.555244 27.124517 38.550943
5212   1  1 18.557103 29.981187 15.702053
5213   1  1 17.128562 28.553110 17.128662
5214   1  1 18.555417 29.981600 18.555475
5215   1  1 17.126926 28.553158 19.982206
5216   1  1 18.553053 29.982286 21.408182
5217   1  1 17.127146 28.552806 22.837370
5218   1  1 18.553995 29.981943 24.263978
5219   1  1 17.129789 28.551948 25.693981
5220   1  1 18.558345 29.979901 27.121735
5221   1  1 17.132460 28.551353 28.550501
5222   1  1 18.561803 29.977277 29.979349
5223   1  1 17.132898 28.551474 31.408186
5224   1  1 18.559343 29.979935 32.836859
5225   1  1 17.131175 28.552249 34.264500
5226   1  1 18.556016 29.981944 35.694393
5227   1  1 17.129599 28.553172 37.120801
5228   1  1 18.555933 29.982167 38.550131
5252   1  1 18.557066 32.837505 15.701966
5253   1  1 17.128649 31.409722 17.128791
5254   1  1 18.555559 32.838526 18.555647
5255   1  1 17.127259 31.410494 19.982667
5256   1  1 18.553683 32.840020 21.409046
5257   1  1 17.127581 31.410715 22.838165
5258   1  1 18.554555 32.840014 24.265494
5259   1  1 17.130018 31.409655 25.695175
5260   1  1 18.557838 32.837505 27.123841
5261   1  1 17.132551 31.407659 28.551869
5262   1  1 18.559547 32.836006 29.979586
5263   1  1 17.132947 31.407559 31.407126
5264   1  1 18.558757 32.837194 32.835212
5265   1  1 17.131282 31.409315 34.263606
5266   1  1 18.556423 32.839351 35.693257
5267   1  1 17.129847 31.410083 37.120282
5268   1  1 18.556379 32.838914 38.549544
5293   1  1 17.128563 34.266160 17.128741
5294   1  1 18.555620 35.694976 18.555690
5295   1  1 17.127368 34.267348 19.982988
5296   1  1 18.554507 35.696219 21.410204
5297   1  1 17.127682 34.267590 22.838943
5298   1  1 18.555533 35.695556 24.267200
5299   1  1 17.129496 34.266344 25.696150
5300   1  1 18.557381 35.693978 27.124401
5301   1  1 17.130918 34.265091 28.552263
5302   1  1 18.558309 35.693225 29.979965
5303   1  1 17.131309 34.264829 31.407385
5304   1  1 18.558254 35.693506 32.835364
5305   1  1 17.130709 34.265581 34.263210
5306   1  1 18.557261 35.694592 35.692127
5338   1  1 18.556591 38.549806 24.268331
5339   1  1 17.129145 37.122161 25.696488
5340   1  1 18.557702 38.548762 27.124698
5341   1  1 17.129995 37.121428 28.552538
5342   1  1 18.558319 38.548317 29.980454
5343   1  1 17.130396 37.121120 31.408026
5344   1  1 18.558398 38.548467 32.835843
5854   1  1 21.412342 18.554443 18.555268
5856   1  1 21.411425 18.553724 21.410208
5858   1  1 21.411165 18.554540 24.266691
5860   1  1 21.412363 18.555778 27.123952
5862   1  1 21.413171 18.556182 29.980274
5864   1  1 21.413180 18.555920 32.836460
5866   1  1 21.412723 18.555031 35.693323
5892   1  1 21.412849 21.411786 15.701612
5893   1  1 19.984182 19.982745 17.127916
5894   1  1 21.411354 21.409392 18.554505
5895   1  1 19.982340 19.980305 19.981136
5896   1  1 21.408803 21.405629 21.406279
5897   1  1 19.980814 19.979402 22.836495
5898   1  1 21.406195 21.404808 24.261834
5899   1  1 19.982343 19.981108 25.695145
5900   1  1 21.409831 21.408546 27.123248
5901   1  1 19.983564 19.981971 28.552053
5902   1  1 21.411363 21.409442 29.979892
5903   1  1 19.984076 19.982168 31.408077
5904   1  1 21.410923 21.408924 32.836347
5905   1  1 19.983898 19.981802 34.264557
5906   1  1 21.408268 21.405722 35.697312
5908   1  1 21.411550 21.407307 38.552404
5930   1  1 21.413663 24.269028 12.848068
5931   1  1 19.985338 22.840548 14.274741
5932   1  1 21.412683 24.268033 15.702193
5933   1  1 19.983758 22.838869 17.128131
5934   1  1 21.410762 24.266022 18.554953
5935   1  1 19.980638 22.835581 19.979793
5936   1  1 21.406040 24.261127 21.404405
5937   1  1 19.974258 22.828978 22.829318
5938   1  1 21.391619 24.246465 24.245817
5939   1  1 19.978252 22.832696 25.693352
5940   1  1 21.404321 24.258811 27.123907
5941   1  1 19.980402 22.834543 28.551691
5942   1  1 21.406363 24.260477 29.979556
5943   1  1 19.980996 22.834822 31.407633
5944   1  1 21.405557 24.259314 32.835014
5945   1  1 19.980076 22.833633 34.265501
5946   1  1 21.393946 24.247542 35.712777
5947   1  1 19.977254 22.830811 37.128881
5948   1  1 21.409115 24.262759 38.554060
5970   1  1 21.413682 27.124949 12.848326
5971   1  1 19.985415 25.696737 14.275143
5972   1  1 21.412774 27.124519 15.702670
5973   1  1 19.983909 25.695834 17.128741
5974   1  1 21.411069 27.123700 18.555877
5975   1  1 19.980919 25.694080 19.980560
5976   1  1 21.407083 27.121978 21.406292
5977   1  1 19.974823 25.690392 22.829439
5978   1  1 21.395962 27.117873 24.249480
5979   1  1 19.975429 25.685247 25.685540
5980   1  1 21.401309 27.107632 27.106275
5981   1  1 19.983494 25.693212 28.551642
5982   1  1 21.416210 27.124696 29.979355
5983   1  1 19.984109 25.693487 31.407094
5984   1  1 21.402587 27.108030 32.852295
5985   1  1 19.977294 25.686093 34.272854
5986   1  1 21.398231 27.118582 35.709004
5987   1  1 19.977644 25.691688 37.128772
5988   1  1 21.409953 27.122865 38.552393
5989   1  1 19.984265 25.695589 39.977863
5990   1  1 21.413996 27.124579 41.403341
6010   1  1 21.413706 29.980843 12.848357
6011   1  1 19.985494 28.552912 14.275327
6012   1  1 21.412879 29.980928 15.702779
6013   1  1 19.984176 28.552804 17.129145
6014   1  1 21.411453 29.981104 18.556245
6015   1  1 19.981709 28.552709 19.981501
6016   1  1 21.408428 29.981832 21.407627
6017   1  1 19.977031 28.552785 22.831588
6018   1  1 21.400322 29.985325 24.254150
6019   1  1 19.979472 28.550445 25.687911
6020   1  1 21.406597 29.980840 27.114477
6021   1  1 19.987079 28.547454 28.546337
6022   1  1 21.415686 29.970002 29.979349
6023   1  1 19.987670 28.547591 31.412212
6024   1  1 21.407764 29.980923 32.844161
6025   1  1 19.981184 28.550794 34.270477
6026   1  1 21.402441 29.985437 35.704462
6027   1  1 19.979657 28.553248 37.126753
6028   1  1 21.411115 29.981892 38.551221
6029   1  1 19.984770 28.553214 39.977189
6030   1  1 21.414241 29.981061 41.403124
6050   1  1 21.413698 32.836722 12.848173
6051   1  1 19.985507 31.409025 14.275277
6052   1  1 21.412891 32.837221 15.702542
6053   1  1 19.984298 31.409539 17.129197
6054   1  1 21.411626 32.838068 18.556077
6055   1  1 19.982251 31.410550 19.982005
6056   1  1 21.409314 32.840046 21.408151
6057   1  1 19.978633 31.412818 22.833415
6058   1  1 21.404241 32.845363 24.258345
6059   1  1 19.980894 31.411973 25.691114
6060   1  1 21.408461 32.842115 27.119923
6061   1  1 19.987062 31.406934 28.551381
6062   1  1 21.412909 32.837833 29.979578
6063   1  1 19.987591 31.406882 31.407434
6064   1  1 21.409502 32.841930 32.839135
6065   1  1 19.982452 31.411798 34.267547
6066   1  1 21.406162 32.844964 35.700586
6067   1  1 19.981055 31.412462 37.125163
6068   1  1 21.411752 32.839395 38.550909
6069   1  1 19.985097 31.409927 39.976866
6070   1  1 21.414169 32.837227 41.403379
6091   1  1 19.985440 34.265081 14.275005
6092   1  1 21.412879 35.693357 15.702111
6093   1  1 19.984287 34.266014 17.128999
6094   1  1 21.411776 35.694418 18.555880
6095   1  1 19.982633 34.267515 19.982321
6096   1  1 21.410783 35.695383 21.409653
6097   1  1 19.980511 34.269827 22.835637
6098   1  1 21.411652 35.694577 24.266068
6099   1  1 19.982607 34.268336 25.694109
6100   1  1 21.414787 35.691637 27.124247
6101   1  1 19.985610 34.265717 28.552081
6102   1  1 21.416510 35.690211 29.979915
6103   1  1 19.986088 34.265556 31.407336
6104   1  1 21.415647 35.691403 32.835486
6105   1  1 19.984011 34.267835 34.265085
6106   1  1 21.413270 35.694019 35.693390
6107   1  1 19.982740 34.268880 37.123278
6108   1  1 21.412940 35.694367 38.549651
6109   1  1 19.985300 34.266159 39.976688
6133   1  1 19.984359 37.122087 17.128759
6134   1  1 21.411798 38.550429 18.555798
6135   1  1 19.983298 37.123061 19.983048
6136   1  1 21.410506 38.551477 21.410368
6137   1  1 19.983433 37.122913 22.838952
6138   1  1 21.411190 38.550515 24.267483
6139   1  1 19.985135 37.121287 25.696259
6140   1  1 21.412851 38.548875 27.124692
6141   1  1 19.986627 37.119985 28.552501
6142   1  1 21.413708 38.548287 29.980296
6143   1  1 19.987039 37.119828 31.407712
6144   1  1 21.413516 38.548754 32.835746
6145   1  1 19.986276 37.120847 34.263667
6146   1  1 21.412432 38.550135 35.692679
6147   1  1 19.985304 37.121937 37.120544
6178   1  1 21.412713 41.404372 24.268850
6179   1  1 19.984824 39.976809 25.696775
6180   1  1 21.413511 41.403599 27.125071
6181   1  1 19.985616 39.976148 28.552746
6182   1  1 21.413983 41.403379 29.980571
6183   1  1 19.985883 39.976155 31.408213
6184   1  1 21.413973 41.403650 32.836008
6620   1  1 24.269446 15.702490 27.124579
6622   1  1 24.269749 15.702652 29.980639
6624   1  1 24.269875 15.702313 32.836683
6654   1  1 24.269160 18.554930 18.555829
6656   1  1 24.268772 18.554492 21.410885
6657   1  1 22.840608 17.128047 22.839696
6658   1  1 24.268388 18.555651 24.267111
6659   1  1 22.840751 17.129026 25.695972
6660   1  1 24.268509 18.557171 27.123575
6661   1  1 22.841455 17.129636 28.552364
6662   1  1 24.269305 18.557725 29.980394
6663   1  1 22.841760 17.129592 31.408550
6664   1  1 24.269191 18.557122 32.837140
6665   1  1 22.841609 17.128991 34.264788
6666   1  1 24.269540 18.555683 35.693448
6692   1  1 24.269079 21.412064 15.702087
6693   1  1 22.840806 19.983051 17.128422
6694   1  1 24.268563 21.409936 18.555262
6695   1  1 22.839887 19.980833 19.981703
6696   1  1 24.267819 21.406740 21.407424
6697   1  1 22.838763 19.980291 22.836688
6698   1  1 24.266338 21.406871 24.262742
6699   1  1 22.838388 19.982111 25.693733
6700   1  1 24.265520 21.410635 27.120473
6701   1  1 22.840479 19.983952 28.551808
6702   1  1 24.268550 21.412875 29.980088
6703   1  1 22.840931 19.984010 31.408437
6704   1  1 24.266442 21.410762 32.839609
6705   1  1 22.839680 19.982382 34.266275
6706   1  1 24.267971 21.407268 35.697120
6707   1  1 22.840635 19.981009 37.122961
6708   1  1 24.269797 21.407612 38.552224
6730   1  1 24.269274 24.269118 12.848422
6731   1  1 22.841222 22.840640 14.275224
6732   1  1 24.268750 24.268201 15.702786
6733   1  1 22.840308 22.839028 17.128828
6734   1  1 24.267912 24.266404 18.556025
6735   1  1 22.838627 22.835858 19.980671
6736   1  1 24.266276 24.262239 21.406492
6737   1  1 22.835107 22.829514 22.829603
6738   1  1 24.262380 24.250860 24.249765
6739   1  1 22.830199 22.829764 25.685753
6740   1  1 24.252417 24.255763 27.106584
6741   1  1 22.838493 22.837420 28.551975
6742   1  1 24.269896 24.270163 29.979805
6743   1  1 22.839054 22.837574 31.407579
6744   1  1 24.253491 24.256001 32.852941
6745   1  1 22.831788 22.830293 34.273574
6746   1  1 24.264294 24.251443 35.709625
6747   1  1 22.837455 22.830555 37.129452
6748   1  1 24.268604 24.263152 38.552941
6749   1  1 22.841226 22.837360 39.978437
6750   1  1 24.270189 24.267474 41.403742
6770   1  1 24.269176 27.124931 12.848721
6771   1  1 22.841108 25.696686 14.275725
6772   1  1 24.268621 27.124466 15.703380
6773   1  1 22.840088 25.695666 17.129677
6774   1  1 24.267631 27.123486 18.557266
6775   1  1 22.837804 25.693294 19.981788
6776   1  1 24.265030 27.120788 21.409068
6777   1  1 22.830709 25.686011 22.828116
6778   1  1 24.254674 27.110218 24.253168
6779   1  1 22.795735 25.650776 25.647945
6780   1  1 24.167881 27.023180 27.014512
6781   1  1 22.835670 25.690238 28.562890
6782   1  1 24.318015 27.172638 29.979649
6783   1  1 22.836299 25.690449 31.396109
6784   1  1 24.169091 27.023385 32.944566
6785   1  1 22.797478 25.651338 34.310935
6786   1  1 24.256695 27.110718 35.705979
6787   1  1 22.833225 25.686960 37.130728
6788   1  1 24.267433 27.121392 38.550383
6789   1  1 22.840534 25.694373 39.977448
6790   1  1 24.270032 27.124103 41.402638
6809   1  1 22.841696 28.552921 11.421136
6810   1  1 24.269195 29.980738 12.848760
6811   1  1 22.841136 28.552769 14.275957
6812   1  1 24.268702 29.980697 15.703488
6813   1  1 22.840242 28.552460 17.130180
6814   1  1 24.267941 29.980568 18.557573
6815   1  1 22.838450 28.551861 19.983064
6816   1  1 24.266249 29.980519 21.410150
6817   1  1 22.833647 28.550831 22.831970
6818   1  1 24.259721 29.983455 24.257897
6819   1  1 22.813207 28.551874 25.663268
6820   1  1 24.217700 30.016064 27.077554
6821   1  1 22.833242 28.527998 28.518543
6822   1  1 24.164930 29.972582 29.979416
6823   1  1 22.833952 28.528144 31.440220
6824   1  1 24.218964 30.016133 32.881383
6825   1  1 22.814959 28.552207 34.295463
6826   1  1 24.261643 29.983593 35.701320
6827   1  1 22.836059 28.551247 37.126955
6828   1  1 24.268544 29.980660 38.549392
6829   1  1 22.841113 28.552283 39.976293
6830   1  1 24.270260 29.980659 41.402428
6831   1  1 22.842732 28.552793 42.829757
6850   1  1 24.269274 32.836529 12.848546
6851   1  1 22.841182 31.408808 14.275847
6852   1  1 24.268804 32.836868 15.703127
6853   1  1 22.840397 31.409072 17.130048
6854   1  1 24.268187 32.837375 18.556938
6855   1  1 22.838984 31.409679 19.983031
6856   1  1 24.267406 32.838108 21.409277
6857   1  1 22.835454 31.412355 22.832993
6858   1  1 24.268182 32.837411 24.261021
6859   1  1 22.821867 31.425630 25.674458
6860   1  1 24.279094 32.826752 27.123875
6861   1  1 22.830268 31.419139 28.542631
6862   1  1 24.289175 32.817147 29.979759
6863   1  1 22.830882 31.419102 31.416351
6864   1  1 24.280129 32.826629 32.835539
6865   1  1 22.823472 31.425557 34.284481
6866   1  1 24.269872 32.837251 35.698466
6867   1  1 22.837669 31.412216 37.126112
6868   1  1 24.269465 32.837826 38.550400
6869   1  1 22.841451 31.409432 39.976447
6870   1  1 24.270261 32.836987 41.403113
6871   1  1 22.842720 31.408746 42.829953
6891   1  1 22.841220 34.264793 14.275476
6892   1  1 24.268837 35.693015 15.702532
6893   1  1 22.840443 34.265497 17.129537
6894   1  1 24.267927 35.694189 18.556148
6895   1  1 22.839388 34.266501 19.982681
6896   1  1 24.265923 35.696467 21.408370
6897   1  1 22.838689 34.267217 22.835585
6898   1  1 24.260657 35.701648 24.258686
6899   1  1 22.841871 34.264188 25.693636
6900   1  1 24.264076 35.697757 27.120319
6901   1  1 22.847410 34.258965 28.552672
6902   1  1 24.268665 35.693766 29.980048
6903   1  1 22.847887 34.258890 31.406898
6904   1  1 24.264867 35.697680 32.839707
6905   1  1 22.843223 34.263916 34.265793
6906   1  1 24.262056 35.701406 35.701215
6907   1  1 22.840622 34.266711 37.123809
6908   1  1 24.267648 35.695967 38.551521
6909   1  1 22.841573 34.265736 39.976894
6910   1  1 24.269661 35.693443 41.403917
6933   1  1 22.840373 37.121768 17.128994
6934   1  1 24.267986 38.550323 18.555813
6935   1  1 22.838890 37.123314 19.982461
6936   1  1 24.266476 38.552161 21.409472
6937   1  1 22.836565 37.125473 22.835891
6938   1  1 24.266480 38.551488 24.266078
6939   1  1 22.838148 37.123562 25.694432
6940   1  1 24.269086 38.548559 27.124520
6941   1  1 22.840945 37.120899 28.552462
6942   1  1 24.270735 38.547300 29.980356
6943   1  1 22.841321 37.120847 31.407782
6944   1  1 24.269670 38.548584 32.836120
6945   1  1 22.839199 37.123366 34.265640
6946   1  1 24.267543 38.551390 35.694377
6947   1  1 22.838144 37.124936 37.123939
6948   1  1 24.267802 38.551716 38.550781
6949   1  1 22.840682 37.122362 39.977311
6977   1  1 22.839336 39.978200 22.839418
6978   1  1 24.268630 41.404160 24.268665
6979   1  1 22.840581 39.976650 25.696702
6980   1  1 24.269851 41.402859 27.125157
6981   1  1 22.841864 39.975579 28.552847
6982   1  1 24.270581 41.402448 29.980605
6983   1  1 22.842132 39.975609 31.408029
6984   1  1 24.270237 41.403012 32.836024
6985   1  1 22.841324 39.976656 34.264042
7021   1  1 22.842130 42.830501 28.552978
7420   1  1 27.125287 15.702764 27.124930
7422   1  1 27.125271 15.702969 29.980812
7424   1  1 27.125691 15.702537 32.836734
7454   1  1 27.125688 18.555411 18.556392
7455   1  1 25.697535 17.127992 19.984337
7456   1  1 27.125712 18.555111 21.411660
7457   1  1 25.697334 17.128642 22.840284
7458   1  1 27.125373 18.556324 24.267998
7459   1  1 25.697131 17.129745 25.696387
7460   1  1 27.124741 18.557911 27.124380
7461   1  1 25.697126 17.130477 28.552450
7462   1  1 27.124309 18.558674 29.980655
7463   1  1 25.697399 17.130382 31.408798
7464   1  1 27.125338 18.557727 32.836924
7465   1  1 25.697813 17.129516 34.264833
7466   1  1 27.126362 18.556077 35.693236
7468   1  1 27.126740 18.555059 38.549407
7492   1  1 27.125140 21.412398 15.702424
7493   1  1 25.697305 19.983485 17.128936
7494   1  1 27.125385 21.410549 18.555933
7495   1  1 25.697276 19.981577 19.982532
7496   1  1 27.126017 21.407922 21.408748
7497   1  1 25.696963 19.981462 22.837802
7498   1  1 27.125782 21.408490 24.264658
7499   1  1 25.696265 19.983714 25.694586
7500   1  1 27.123996 21.412384 27.122576
7501   1  1 25.695910 19.985952 28.551368
7502   1  1 27.121733 21.415329 29.980436
7503   1  1 25.696298 19.985918 31.409388
7504   1  1 27.124792 21.412292 32.838274
7505   1  1 25.697300 19.983671 34.266077
7506   1  1 27.127122 21.408460 35.696068
7507   1  1 25.698358 19.981627 37.122669
7508   1  1 27.127540 21.408161 38.551805
7530   1  1 27.124821 24.269279 12.848589
7531   1  1 25.697051 22.840850 14.275542
7532   1  1 27.124692 24.268472 15.703080
7533   1  1 25.696816 22.839444 17.129410
7534   1  1 27.124731 24.266976 18.556641
7535   1  1 25.696680 22.836801 19.981840
7536   1  1 27.125443 24.263776 21.408134
7537   1  1 25.696841 22.831858 22.832032
7538   1  1 27.129078 24.255388 24.254784
7539   1  1 25.694720 22.833900 25.688457
7540   1  1 27.124891 24.261180 27.115192
7541   1  1 25.692044 22.841021 28.547042
7542   1  1 27.114456 24.269697 29.980216
7543   1  1 25.692533 22.841051 31.413181
7544   1  1 27.125829 24.261194 32.845224
7545   1  1 25.696032 22.834067 34.271657
7546   1  1 27.130642 24.255555 35.705544
7547   1  1 25.698653 22.832309 37.127949
7548   1  1 27.127277 24.264141 38.552176
7549   1  1 25.698560 22.837547 39.978172
7550   1  1 27.126500 24.267504 41.403797
7569   1  1 25.697118 25.697284 11.421234
7570   1  1 27.124652 27.124997 12.848886
7571   1  1 25.696795 25.696806 14.276083
7572   1  1 27.124414 27.124604 15.703666
7573   1  1 25.696374 25.695922 17.130349
7574   1  1 27.124169 27.123862 18.557815
7575   1  1 25.695760 25.694044 19.983287
7576   1  1 27.124127 27.122078 21.410459
7577   1  1 25.694845 25.689052 22.832269
7578   1  1 27.127213 27.115347 24.258295
7579   1  1 25.696154 25.668355 25.663698
7580   1  1 27.160064 27.073096 27.078200
7581   1  1 25.672591 25.687863 28.518944
7582   1  1 27.117156 27.019240 29.980165
7583   1  1 25.673164 25.687890 31.440885
7584   1  1 27.161162 27.073160 32.882003
7585   1  1 25.697617 25.668628 34.296029
7586   1  1 27.128875 27.115562 35.701838
7587   1  1 25.696854 25.689540 37.127487
7588   1  1 27.126083 27.122406 38.549784
7589   1  1 25.697923 25.694668 39.976698
7590   1  1 27.126113 27.124243 41.402682
7591   1  1 25.698355 25.696579 42.830006
7609   1  1 25.697063 28.552902 11.421356
7610   1  1 27.124655 29.980686 12.848948
7611   1  1 25.696728 28.552735 14.276355
7612   1  1 27.124443 29.980657 15.703845
7613   1  1 25.696282 28.552394 17.130980
7614   1  1 27.124286 29.980605 18.558308
7615   1  1 25.695467 28.551587 19.984919
7616   1  1 27.124231 29.980541 21.411838
7617   1  1 25.693063 28.549064 22.836377
7618   1  1 27.124320 29.980477 24.263967
7619   1  1 25.686334 28.542118 25.662036
7620   1  1 27.124586 29.980453 27.160739
7621   1  1 25.541099 28.397070 28.154317
7622   1  1 27.867008 30.723642 29.980545
7623   1  1 25.542404 28.397063 31.805050
7624   1  1 27.125591 29.980547 32.799271
7625   1  1 25.687932 28.542349 34.297451
7626   1  1 27.125941 29.980645 35.696122
7627   1  1 25.695086 28.549365 37.123345
7628   1  1 27.126136 29.980712 38.548437
7629   1  1 25.697656 28.551912 39.975131
7630   1  1 27.126194 29.980759 41.402259
7631   1  1 25.698324 28.552681 42.829496
7632   1  1 27.126122 29.980774 44.257045
7649   1  1 25.697122 31.408520 11.421291
7650   1  1 27.124790 32.836378 12.848752
7651   1  1 25.696818 31.408634 14.276247
7652   1  1 27.124610 32.836689 15.703518
7653   1  1 25.696492 31.408782 17.130784
7654   1  1 27.124538 32.837302 18.557708
7655   1  1 25.696158 31.408987 19.984429
7656   1  1 27.124463 32.838935 21.410431
7657   1  1 25.696129 31.408995 22.836081
7658   1  1 27.121555 32.845550 24.258325
7659   1  1 25.702397 31.402883 25.687231
7660   1  1 27.089166 32.887784 27.078177
7661   1  1 25.738890 31.366697 28.571693
7662   1  1 27.133063 32.941618 29.980053
7663   1  1 25.739613 31.366614 31.387796
7664   1  1 27.090097 32.887806 32.881951
7665   1  1 25.703783 31.402911 34.272419
7666   1  1 27.122999 32.845589 35.701892
7667   1  1 25.698001 31.409020 37.123743
7668   1  1 27.126183 32.838922 38.549924
7669   1  1 25.698196 31.408962 39.975695
7670   1  1 27.126253 32.837215 41.402882
7671   1  1 25.698394 31.408705 42.829734
7691   1  1 25.696946 34.264546 14.275831
7692   1  1 27.124745 35.692773 15.702826
7693   1  1 25.696543 34.265196 17.130094
7694   1  1 27.124383 35.694062 18.556482
7695   1  1 25.695825 34.266527 19.983198
7696   1  1 27.123522 35.697056 21.408143
7697   1  1 25.693130 34.270080 22.833312
7698   1  1 27.120048 35.705317 24.254923
7699   1  1 25.679992 34.283849 25.674913
7700   1  1 27.124735 35.699503 27.115344
7701   1  1 25.686742 34.275943 28.543081
7702   1  1 27.135973 35.691005 29.980316
7703   1  1 25.687197 34.275926 31.416964
7704   1  1 27.125446 35.699559 32.845240
7705   1  1 25.681170 34.283792 34.285078
7706   1  1 27.121251 35.705352 35.705611
7707   1  1 25.694745 34.269914 37.126716
7708   1  1 27.124960 35.696936 38.552362
7709   1  1 25.697585 34.266206 39.976992
7710   1  1 27.125779 35.693758 41.404114
7711   1  1 25.698154 34.264771 42.830395
7733   1  1 25.696535 37.121509 17.129286
7734   1  1 27.124394 38.550296 18.555852
7735   1  1 25.695433 37.123471 19.982322
7736   1  1 27.123539 38.552676 21.408907
7737   1  1 25.693130 37.127156 22.833994
7738   1  1 27.123866 38.552033 24.264941
7739   1  1 25.694055 37.125205 25.691841
7740   1  1 27.126076 38.548168 27.122813
7741   1  1 25.699324 37.119505 28.552213
7742   1  1 27.128992 38.545259 29.980547
7743   1  1 25.699660 37.119530 31.408386
7744   1  1 27.126622 38.548301 32.838238
7745   1  1 25.694980 37.125212 34.268656
7746   1  1 27.124805 38.552172 35.696010
7747   1  1 25.694421 37.126991 37.126377
7748   1  1 27.124632 38.552600 38.551873
7749   1  1 25.696835 37.123016 39.978005
7775   1  1 25.695982 39.978563 19.983177
7777   1  1 25.695691 39.978434 22.838917
7778   1  1 27.124884 41.404168 24.268369
7779   1  1 25.696776 39.976383 25.696061
7780   1  1 27.125795 41.402657 27.124638
7781   1  1 25.698897 39.974298 28.552862
7782   1  1 27.126707 41.401935 29.980737
7783   1  1 25.699143 39.974381 31.408256
7784   1  1 27.126205 41.402877 32.836829
7785   1  1 25.697450 39.976532 34.264955
7787   1  1 25.696622 39.978464 37.121942
7819   1  1 25.697423 42.830671 25.697152
7821   1  1 25.698208 42.829998 28.552994
7823   1  1 25.698369 42.830124 31.408496
8220   1  1 29.981079 15.702588 27.125344
8222   1  1 29.981105 15.702673 29.981014
8224   1  1 29.981536 15.702322 32.836755
8254   1  1 29.981801 18.555891 18.556938
8256   1  1 29.982076 18.555552 21.412377
8257   1  1 28.553690 17.128900 22.840871
8258   1  1 29.981685 18.556509 24.268876
8259   1  1 28.553245 17.129911 25.697069
8260   1  1 29.980735 18.557751 27.125374
8261   1  1 28.552768 17.130597 28.553039
8262   1  1 29.980469 18.558107 29.980948
8263   1  1 28.553034 17.130466 31.408712
8264   1  1 29.981366 18.557441 32.836569
8265   1  1 28.553955 17.129576 34.264719
8266   1  1 29.982812 18.555925 35.693181
8292   1  1 29.980965 21.412752 15.702653
8293   1  1 28.553488 19.983919 17.129370
8294   1  1 29.981672 21.411136 18.556498
8295   1  1 28.554060 19.982275 19.983352
8296   1  1 29.983032 21.409006 21.410034
8297   1  1 28.554255 19.982235 22.838946
8298   1  1 29.983153 21.409467 24.266521
8299   1  1 28.553362 19.984244 25.696068
8300   1  1 29.980965 21.412257 27.124911
8301   1  1 28.551704 19.986307 28.552948
8302   1  1 29.979943 21.413405 29.980814
8303   1  1 28.552063 19.986188 31.408501
8304   1  1 29.981720 21.411982 32.836742
8305   1  1 28.554345 19.983933 34.265388
8306   1  1 29.984468 21.409049 35.695107
8307   1  1 28.555515 19.981964 37.122362
8308   1  1 29.984508 21.408728 38.551365
8330   1  1 29.980347 24.269455 12.848610
8331   1  1 28.552760 22.841106 14.275698
8332   1  1 29.980488 24.268720 15.703124
8333   1  1 28.553008 22.839854 17.129737
8334   1  1 29.981075 24.267425 18.556831
8335   1  1 28.553862 22.837657 19.982687
8336   1  1 29.982960 24.264958 21.409069
8337   1  1 28.556147 22.833761 22.834225
8338   1  1 29.988405 24.259578 24.259335
8339   1  1 28.555518 22.835592 25.691999
8340   1  1 29.985489 24.263310 27.120904
8341   1  1 28.550854 22.841228 28.552389
8342   1  1 29.981675 24.267161 29.980640
8343   1  1 28.551286 22.841150 31.408671
8344   1  1 29.986318 24.263148 32.840397
8345   1  1 28.556676 22.835440 34.269031
8346   1  1 29.989809 24.259401 35.701916
8347   1  1 28.557689 22.833725 37.126670
8348   1  1 29.984589 24.264920 38.552043
8349   1  1 28.555434 22.837863 39.978075
8350   1  1 29.982601 24.267582 41.404193
8370   1  1 29.980135 27.125087 12.848857
8371   1  1 28.552424 25.696968 14.276159
8372   1  1 29.980160 27.124736 15.703567
8373   1  1 28.552455 25.696219 17.130475
8374   1  1 29.980451 27.124157 18.557525
8375   1  1 28.552944 25.694738 19.983584
8376   1  1 29.981125 27.123297 21.409979
8377   1  1 28.555655 25.691024 22.833664
8378   1  1 29.980544 27.123867 24.261783
8379   1  1 28.569127 25.677147 25.675248
8380   1  1 29.970121 27.134476 27.124701
8381   1  1 28.563061 25.684985 28.543395
8382   1  1 29.960977 27.143934 29.980507
8383   1  1 28.563568 25.684937 31.417328
8384   1  1 29.971037 27.134370 32.836404
8385   1  1 28.570392 25.677140 34.285470
8386   1  1 29.981966 27.123877 35.699240
8387   1  1 28.557334 25.691144 37.126993
8388   1  1 29.982801 27.123411 38.551018
8389   1  1 28.554716 25.694998 39.977101
8390   1  1 29.982102 27.124347 41.403522
8391   1  1 28.554071 25.696565 42.830355
8409   1  1 28.552446 28.552919 11.421415
8410   1  1 29.980131 29.980652 12.848928
8411   1  1 28.552296 28.552784 14.276425
8412   1  1 29.980167 29.980647 15.703774
8413   1  1 28.552240 28.552566 17.131036
8414   1  1 29.980592 29.980684 18.558046
8415   1  1 28.552348 28.552247 19.984754
8416   1  1 29.982174 29.980619 21.410822
8417   1  1 28.552408 28.552110 22.836460
8418   1  1 29.988886 29.977590 24.258747
8419   1  1 28.546485 28.558134 25.687665
8420   1  1 30.031362 29.944955 27.078635
8421   1  1 28.510544 28.594372 28.572277
8422   1  1 26.383113 29.237224 29.979414
8423   1  1 30.085215 29.988526 29.980614
8424   1  1 28.511262 28.594297 31.388387
8425   1  1 30.032331 29.945007 32.882492
8426   1  1 28.547763 28.558224 34.272877
8427   1  1 29.990286 29.977722 35.702227
8428   1  1 28.554097 28.552284 37.124108
8429   1  1 29.983810 29.980800 38.550163
8430   1  1 28.554166 28.552469 39.975949
8431   1  1 29.982218 29.980879 41.403042