Generated by pymatgen.io.lammps.data.LammpsData

16000  atoms

    1  atom types

0.000000 57.106000  xlo xhi
0.000000 57.106000  ylo yhi
0.000000 57.106000  zlo zhi
0.000000 0.000000 0.000000  xy xz yz

Masses

1  55.847

Atoms

1     -2  1 57.064695 57.064762 57.064678
2     -2  1  1.411572  1.411743  1.411545
3     -2  1  0.001354  0.001500  2.854871
4     -2  1  1.426440  1.426688  4.281250
5     -2  1 57.105802  0.000031  5.710350
6     -2  1  1.427042  1.427354  7.137457
7     -2  1 57.105640 57.105934  8.565433
8     -2  1  1.427114  1.427470  9.992882
9     -2  1 57.105621 57.105955 11.420691
10    -2  1  1.427140  1.427514 12.848255
11    -2  1 57.105624 57.105970 14.276016
12    -2  1  1.427164  1.427532 15.703639
13    -2  1 57.105646 57.105978 17.131381
14    -2  1  1.427199  1.427540 18.559042
15    -2  1 57.105684 57.105983 19.986774
16    -2  1  1.427246  1.427546 21.414460
17    -2  1 57.105735 57.105985 22.842183
18    -2  1  1.427302  1.427550 24.269884
19    -2  1 57.105793 57.105987 25.697598
20    -2  1  1.427362  1.427554 27.125309
21    -2  1 57.105854 57.105987 28.553014
22    -2  1  1.427423  1.427558 29.980729
23    -2  1 57.105916 57.105986 31.408426
24    -2  1  1.427481  1.427561 32.836141
25    -2  1 57.105974 57.105983 34.263829
26    -2  1  1.427532  1.427561 35.691542
27    -2  1  0.000024 57.105978 37.119217
28    -2  1  1.427570  1.427557 38.546929
29    -2  1  0.000062 57.105970 39.974583
30    -2  1  1.427585  1.427542 41.402303
31    -2  1  0.000079 57.105955 42.829918
32    -2  1  1.427555  1.427496 44.257679
33    -2  1  0.000072 57.105934 45.685196
34    -2  1  1.427431  1.427377 47.113119
35    -2  1  0.000160  0.000032 48.540307
36    -2  1  1.426733  1.426707 49.969347
37    -2  1  0.001597  0.001505 51.395808
38    -2  1  1.411742  1.411769 52.839062
39    -2  1 57.064810 57.064797 54.291993
40    -2  1  1.420935  1.421030 55.678316
41    -2  1  0.001453  2.855132  0.001433
42    -2  1  1.426536  4.281610  1.426504
43    -2  1 57.105390  2.851558  2.851322
44    -2  1  1.426593  4.280671  4.280348
45    -2  1 57.105462  2.854410  5.709196
46    -2  1  1.426904  4.282081  7.136881
47    -2  1 57.105581  2.854960  8.565119
48    -2  1  1.427049  4.282501  9.992652
49    -2  1 57.105598  2.855082 11.420574
50    -2  1  1.427094  4.282617 12.848145
51    -2  1 57.105608  2.855119 14.275962
52    -2  1  1.427124  4.282654 15.703580
53    -2  1 57.105632  2.855133 17.131355
54    -2  1  1.427162  4.282671 18.559011
55    -2  1 57.105672  2.855140 19.986761
56    -2  1  1.427213  4.282682 21.414445
57    -2  1 57.105724  2.855145 22.842178
58    -2  1  1.427272  4.282693 24.269881
59    -2  1 57.105783  2.855150 25.697598
60    -2  1  1.427335  4.282705 27.125314
61    -2  1 57.105845  2.855155 28.553018
62    -2  1  1.427399  4.282717 29.980740
63    -2  1 57.105908  2.855160 31.408434
64    -2  1  1.427459  4.282729 32.836159
65    -2  1 57.105967  2.855163 34.263843
66    -2  1  1.427513  4.282736 35.691570
67    -2  1  0.000018  2.855163 37.119242
68    -2  1  1.427552  4.282733 38.546977
69    -2  1  0.000055  2.855152 39.974632
70    -2  1  1.427563  4.282700 41.402396
71    -2  1  0.000066  2.855114 42.830028
72    -2  1  1.427513  4.282579 44.257888
73    -2  1  0.000022  2.854987 45.685503
74    -2  1  1.427312  4.282146 47.113675
75    -2  1 57.105826  2.854431 48.541455
76    -2  1  1.426897  4.280717 49.970235
77    -2  1 57.105630  2.851572 51.399356
78    -2  1  1.426699  4.281634 52.824105
79    -2  1  0.001538  2.855137 54.249265
80    -2  1  1.426688  4.281964 55.678310
81    -2  1 57.105985  5.710761 57.105956
82    -2  1  1.427223  7.137946  1.427179
83    -2  1 57.105547  5.709578  2.854199
84    -2  1  1.426989  7.137319  4.281802
85    -2  1 57.105510  5.709172  5.708836
86    -2  1  1.426964  7.137192  7.136820
87    -2  1 57.105552  5.709902  8.564768
88    -2  1  1.427013  7.137560  9.992457
89    -2  1 57.105564  5.710183 11.420397
90    -2  1  1.427042  7.137736 12.848012
91    -2  1 57.105575  5.710274 14.275872
92    -2  1  1.427072  7.137805 15.703500
93    -2  1 57.105603  5.710307 17.131309
94    -2  1  1.427115  7.137837 18.558966
95    -2  1 57.105646  5.710323 19.986740
96    -2  1  1.427171  7.137861 21.414425
97    -2  1 57.105701  5.710335 22.842171
98    -2  1  1.427236  7.137882 24.269877
99    -2  1 57.105764  5.710346 25.697600
100   -2  1  1.427305  7.137904 27.125321
101   -2  1 57.105829  5.710357 28.553026
102   -2  1  1.427374  7.137924 29.980755
103   -2  1 57.105894  5.710366 31.408448
104   -2  1  1.427439  7.137941 32.836182
105   -2  1 57.105956  5.710372 34.263865
106   -2  1  1.427496  7.137950 35.691604
107   -2  1  0.000009  5.710368 37.119281
108   -2  1  1.427539  7.137938 38.547034
109   -2  1  0.000048  5.710341 39.974708
110   -2  1  1.427554  7.137876 41.402496
111   -2  1  0.000059  5.710248 42.830187
112   -2  1  1.427518  7.137689 44.258047
113   -2  1  0.000019  5.709957 45.685835
114   -2  1  1.427405  7.137297 47.113703
115   -2  1 57.105894  5.709212 48.541797
116   -2  1  1.427315  7.137390 49.968753
117   -2  1 57.105800  5.709601 51.396466
118   -2  1  1.427396  7.137981 52.823407
119   -2  1  0.000073  5.710769 54.250730
120   -2  1  1.427373  7.138111 55.678299
121   -2  1 57.105895  8.565960 57.105851
122   -2  1  1.427366  9.993455  1.427306
123   -2  1 57.105735  8.565611  2.854778
124   -2  1  1.427200  9.993168  4.282271
125   -2  1 57.105618  8.565202  5.709624
126   -2  1  1.427079  9.992899  7.137263
127   -2  1 57.105556  8.565140  8.564779
128   -2  1  1.427021  9.992848  9.992494
129   -2  1 57.105540  8.565342 11.420288
130   -2  1  1.427015  9.992942 12.847948
131   -2  1 57.105548  8.565464 14.275792
132   -2  1  1.427041  9.993015 15.703439
133   -2  1 57.105579  8.565521 17.131264
134   -2  1  1.427091  9.993063 18.558928
135   -2  1 57.105628  8.565554 19.986720
136   -2  1  1.427158  9.993101 21.414408
137   -2  1 57.105690  8.565577 22.842166
138   -2  1  1.427233  9.993137 24.269875
139   -2  1 57.105757  8.565597 25.697604
140   -2  1  1.427310  9.993169 27.125327
141   -2  1 57.105826  8.565613 28.553035
142   -2  1  1.427383  9.993196 29.980766
143   -2  1 57.105894  8.565625 31.408460
144   -2  1  1.427450  9.993215 32.836196
145   -2  1 57.105957  8.565628 34.263883
146   -2  1  1.427509  9.993221 35.691623
147   -2  1  0.000012  8.565615 37.119314
148   -2  1  1.427554  9.993200 38.547060
149   -2  1  0.000054  8.565565 39.974766
150   -2  1  1.427578  9.993132 41.402514
151   -2  1  0.000072  8.565439 42.830268
152   -2  1  1.427575  9.993020 44.257961
153   -2  1  0.000058  8.565221 45.685794
154   -2  1  1.427561  9.993035 47.113216
155   -2  1  0.000030  8.565260 48.540982
156   -2  1  1.427554  9.993260 49.968248
157   -2  1  0.000006  8.565644 51.395864
158   -2  1  1.427553  9.993500 52.823250
159   -2  1 57.105990  8.565971 54.250814
160   -2  1  1.427499  9.993564 55.678286
161   -2  1 57.105929 11.421283 57.105866
162   -2  1  1.427442 12.848858  1.427363
163   -2  1 57.105798 11.421128  2.854932
164   -2  1  1.427291 12.848691  4.282437
165   -2  1 57.105674 11.420891  5.709968
166   -2  1  1.427152 12.848487  7.137518
167   -2  1 57.105582 11.420705  8.565066
168   -2  1  1.427059 12.848334  9.992684
169   -2  1 57.105539 11.420673 11.420349
170   -2  1  1.427027 12.848289 12.848003
171   -2  1 57.105543 11.420734 14.275781
172   -2  1  1.427052 12.848315 15.703440
173   -2  1 57.105580 11.420794 17.131249
174   -2  1  1.427115 12.848359 18.558921
175   -2  1 57.105639 11.420839 19.986714
176   -2  1  1.427198 12.848408 21.414405
177   -2  1 57.105710 11.420874 22.842168
178   -2  1  1.427287 12.848455 24.269875
179   -2  1 57.105784 11.420903 25.697609
180   -2  1  1.427371 12.848496 27.125327
181   -2  1 57.105856 11.420925 28.553039
182   -2  1  1.427446 12.848530 29.980761
183   -2  1 57.105923 11.420938 31.408461
184   -2  1  1.427511 12.848550 32.836183
185   -2  1 57.105985 11.420937 34.263882
186   -2  1  1.427565 12.848555 35.691600
187   -2  1  0.000039 11.420915 37.119310
188   -2  1  1.427607 12.848539 38.547014
189   -2  1  0.000081 11.420865 39.974749
190   -2  1  1.427638 12.848514 41.402407
191   -2  1  0.000108 11.420795 42.830172
192   -2  1  1.427659 12.848533 44.257718
193   -2  1  0.000119 11.420806 45.685471
194   -2  1  1.427673 12.848642 47.112913
195   -2  1  0.000114 11.420964 48.540605
196   -2  1  1.427672 12.848796 49.968043
197   -2  1  0.000088 11.421171 51.395682
198   -2  1  1.427643 12.848909 52.823161
199   -2  1  0.000030 11.421297 54.250774
200   -2  1  1.427568 12.848933 55.678271
201   -2  1 57.105960 14.276614 57.105876
202   -2  1  1.427492 15.704214  1.427393
203   -2  1 57.105831 14.276524  2.855001
204   -2  1  1.427342 15.704104  4.282519
205   -2  1 57.105704 14.276379  5.710122
206   -2  1  1.427201 15.703959  7.137658
207   -2  1 57.105608 14.276225  8.565273
208   -2  1  1.427103 15.703820  9.992849
209   -2  1 57.105560 14.276125 11.420510
210   -2  1  1.427071 15.703728 12.848132
211   -2  1 57.105565 14.276102 14.275861
212   -2  1  1.427104 15.703701 15.703515
213   -2  1 57.105612 14.276130 17.131288
214   -2  1  1.427185 15.703721 18.558961
215   -2  1 57.105684 14.276170 19.986738
216   -2  1  1.427288 15.703763 21.414425
217   -2  1 57.105766 14.276211 22.842184
218   -2  1  1.427391 15.703813 24.269881
219   -2  1 57.105846 14.276246 25.697615
220   -2  1  1.427482 15.703861 27.125316
221   -2  1 57.105919 14.276272 28.553032
222   -2  1  1.427556 15.703899 29.980731
223   -2  1 57.105984 14.276286 31.408440
224   -2  1  1.427614 15.703925 32.836131
225   -2  1  0.000040 14.276285 34.263845
226   -2  1  1.427658 15.703936 35.691520
227   -2  1  0.000088 14.276270 37.119248
228   -2  1  1.427691 15.703942 38.546892
229   -2  1  0.000127 14.276250 39.974637
230   -2  1  1.427718 15.703964 41.402226
231   -2  1  0.000156 14.276261 42.829974
232   -2  1  1.427740 15.704025 44.257502
233   -2  1  0.000173 14.276337 45.685226
234   -2  1  1.427753 15.704118 47.112727
235   -2  1  0.000169 14.276459 48.540417
236   -2  1  1.427745 15.704210 49.967923
237   -2  1  0.000136 14.276571 51.395583
238   -2  1  1.427704 15.704267 52.823100
239   -2  1  0.000066 14.276629 54.250738
240   -2  1  1.427619 15.704270 55.678256
241   -2  1 57.105985 17.131928 57.105881
242   -2  1  1.427528 18.559537  1.427411
243   -2  1 57.105853 17.131869  2.855042
244   -2  1  1.427378 18.559462  4.282571
245   -2  1 57.105727 17.131776  5.710210
246   -2  1  1.427239 18.559363  7.137748
247   -2  1 57.105632 17.131668  8.565409
248   -2  1  1.427147 18.559260  9.992974
249   -2  1 57.105590 17.131575 11.420664
250   -2  1  1.427126 18.559176 12.848268
251   -2  1 57.105605 17.131521 14.275991
252   -2  1  1.427178 18.559129 15.703632
253   -2  1 57.105666 17.131513 17.131378
254   -2  1  1.427280 18.559121 18.559044
255   -2  1 57.105752 17.131533 19.986796
256   -2  1  1.427402 18.559145 21.414472
257   -2  1 57.105844 17.131566 22.842215
258   -2  1  1.427518 18.559186 24.269893
259   -2  1 57.105929 17.131600 25.697621
260   -2  1  1.427614 18.559232 27.125294
261   -2  1  0.000002 17.131628 28.553013
262   -2  1  1.427685 18.559275 29.980675
263   -2  1  0.000062 17.131646 31.408393
264   -2  1  1.427734 18.559308 32.836039
265   -2  1  0.000110 17.131653 34.263767
266   -2  1  1.427764 18.559333 35.691391
267   -2  1  0.000148 17.131656 37.119132
268   -2  1  1.427782 18.559358 38.546729
269   -2  1  0.000179 17.131669 39.974476
270   -2  1  1.427796 18.559395 41.402044
271   -2  1  0.000203 17.131709 42.829785
272   -2  1  1.427807 18.559449 44.257333
273   -2  1  0.000216 17.131778 45.685055
274   -2  1  1.427812 18.559509 47.112597
275   -2  1  0.000208 17.131856 48.540296
276   -2  1  1.427797 18.559559 49.967839
277   -2  1  0.000170 17.131916 51.395514
278   -2  1  1.427748 18.559585 52.823055
279   -2  1  0.000095 17.131943 54.250709
280   -2  1  1.427658 18.559579 55.678245
281   -2  1  0.000004 19.987219 57.105883
282   -2  1  1.427556 21.414832  1.427423
283   -2  1 57.105871 19.987181  2.855070
284   -2  1  1.427405 21.414783  4.282605
285   -2  1 57.105745 19.987122  5.710268
286   -2  1  1.427268 21.414720  7.137810
287   -2  1 57.105654 19.987051  8.565502
288   -2  1  1.427184 21.414653  9.993065
289   -2  1 57.105621 19.986984 11.420787
290   -2  1  1.427178 21.414594 12.848384
291   -2  1 57.105650 19.986934 14.276122
292   -2  1  1.427250 21.414552 15.703753
293   -2  1 57.105725 19.986910 17.131493
294   -2  1  1.427372 21.414532 18.559147
295   -2  1 57.105824 19.986909 19.986879
296   -2  1  1.427510 21.414535 21.414538
297   -2  1 57.105924 19.986926 22.842261
298   -2  1  1.427636 21.414558 24.269912
299   -2  1  0.000013 19.986951 25.697629
300   -2  1  1.427735 21.414596 27.125265
301   -2  1  0.000084 19.986978 28.552982
302   -2  1  1.427802 21.414639 29.980600
303   -2  1  0.000138 19.987001 31.408324
304   -2  1  1.427841 21.414679 32.835925
305   -2  1  0.000177 19.987020 34.263660
306   -2  1  1.427857 21.414712 35.691247
307   -2  1  0.000205 19.987038 37.118992
308   -2  1  1.427859 21.414741 38.546570
309   -2  1  0.000226 19.987064 39.974317
310   -2  1  1.427858 21.414771 41.401893
311   -2  1  0.000241 19.987101 42.829632
312   -2  1  1.427857 21.414804 44.257207
313   -2  1  0.000248 19.987148 45.684931
314   -2  1  1.427854 21.414836 47.112505
315   -2  1  0.000236 19.987191 48.540210
316   -2  1  1.427833 21.414860 49.967779
317   -2  1  0.000196 19.987222 51.395463
318   -2  1  1.427780 21.414870 52.823023
319   -2  1  0.000117 19.987233 54.250686
320   -2  1  1.427687 21.414861 55.678236
321   -2  1  0.000018 22.842489 57.105885
322   -2  1  1.427574 24.270104  1.427431
323   -2  1 57.105885 22.842466  2.855088
324   -2  1  1.427423 24.270077  4.282627
325   -2  1 57.105759 22.842431  5.710307
326   -2  1  1.427288 24.270043  7.137849
327   -2  1 57.105672 22.842391  8.565566
328   -2  1  1.427210 24.270008  9.993125
329   -2  1 57.105648 22.842350 11.420876
330   -2  1  1.427216 24.269975 12.848465
331   -2  1 57.105688 22.842317 14.276228
332   -2  1  1.427304 24.269949 15.703847
333   -2  1 57.105776 22.842294 17.131599
334   -2  1  1.427442 24.269932 18.559237
335   -2  1 57.105885 22.842283 19.986965
336   -2  1  1.427591 24.269926 21.414602
337   -2  1 57.105991 22.842285 22.842311
338   -2  1  1.427724 24.269933 24.269933
339   -2  1  0.000082 22.842299 25.697637
340   -2  1  1.427823 24.269955 27.125236
341   -2  1  0.000151 22.842320 28.552946
342   -2  1  1.427887 24.269990 29.980526
343   -2  1  0.000199 22.842345 31.408248
344   -2  1  1.427918 24.270025 32.835819
345   -2  1  0.000230 22.842368 34.263552
346   -2  1  1.427922 24.270053 35.691125
347   -2  1  0.000248 22.842390 37.118866
348   -2  1  1.427911 24.270073 38.546450
349   -2  1  0.000259 22.842413 39.974190
350   -2  1  1.427898 24.270090 41.401787
351   -2  1  0.000267 22.842437 42.829519
352   -2  1  1.427889 24.270105 44.257123
353   -2  1  0.000268 22.842462 45.684844
354   -2  1  1.427879 24.270118 47.112445
355   -2  1  0.000255 22.842483 48.540151
356   -2  1  1.427856 24.270127 49.967740
357   -2  1  0.000213 22.842496 51.395428
358   -2  1  1.427801 24.270128 52.823003
359   -2  1  0.000133 22.842499 54.250671
360   -2  1  1.427706 24.270121 55.678230
361   -2  1  0.000027 25.697742 57.105885
362   -2  1  1.427582 27.125361  1.427434
363   -2  1 57.105893 25.697732  2.855098
364   -2  1  1.427431 27.125354  4.282637
365   -2  1 57.105767 25.697717  5.710328
366   -2  1  1.427298 27.125346  7.137867
367   -2  1 57.105683 25.697701  8.565602
368   -2  1  1.427223 27.125338  9.993153
369   -2  1 57.105665 25.697684 11.420928
370   -2  1  1.427236 27.125330 12.848504
371   -2  1 57.105713 25.697669 14.276294
372   -2  1  1.427331 27.125324 15.703895
373   -2  1 57.105809 25.697657 17.131670
374   -2  1  1.427478 27.125317 18.559285
375   -2  1 57.105925 25.697648 19.987027
376   -2  1  1.427634 27.125312 21.414640
377   -2  1  0.000035 25.697645 22.842351
378   -2  1  1.427769 27.125312 24.269947
379   -2  1  0.000126 25.697648 25.697643
380   -2  1  1.427870 27.125318 27.125219
381   -2  1  0.000193 25.697660 28.552917
382   -2  1  1.427931 27.125332 29.980481
383   -2  1  0.000237 25.697678 31.408190
384   -2  1  1.427956 27.125348 32.835757
385   -2  1  0.000261 25.697695 34.263475
386   -2  1  1.427954 27.125360 35.691060
387   -2  1  0.000273 25.697709 37.118782
388   -2  1  1.427936 27.125367 38.546389
389   -2  1  0.000278 25.697720 39.974110
390   -2  1  1.427917 27.125370 41.401736
391   -2  1  0.000281 25.697730 42.829453
392   -2  1  1.427903 27.125372 44.257084
393   -2  1  0.000280 25.697738 45.684794
394   -2  1  1.427891 27.125372 47.112417
395   -2  1  0.000265 25.697745 48.540117
396   -2  1  1.427866 27.125372 49.967722
397   -2  1  0.000222 25.697748 51.395407
398   -2  1  1.427811 27.125370 52.822993
399   -2  1  0.000142 25.697748 54.250661
400   -2  1  1.427715 27.125366 55.678227
401   -2  1  0.000029 28.552986 57.105885
402   -2  1  1.427581 29.980615  1.427433
403   -2  1 57.105895 28.552988  2.855101
404   -2  1  1.427430 29.980627  4.282634
405   -2  1 57.105770 28.552992  5.710334
406   -2  1  1.427296 29.980644  7.137862
407   -2  1 57.105687 28.552997  8.565610
408   -2  1  1.427221 29.980662  9.993146
409   -2  1 57.105670 28.553002 11.420941
410   -2  1  1.427234 29.980679 12.848495
411   -2  1 57.105721 28.553006 14.276311
412   -2  1  1.427330 29.980691 15.703886
413   -2  1 57.105820 28.553007 17.131689
414   -2  1  1.427477 29.980696 18.559278
415   -2  1 57.105938 28.553006 19.987046
416   -2  1  1.427633 29.980696 21.414635
417   -2  1  0.000049 28.553003 22.842363
418   -2  1  1.427769 29.980691 24.269945
419   -2  1  0.000140 28.553001 25.697645
420   -2  1  1.427869 29.980682 27.125219
421   -2  1  0.000207 28.553001 28.552906
422   -2  1  1.427931 29.980670 29.980483
423   -2  1  0.000249 28.553003 31.408170
424   -2  1  1.427956 29.980660 32.835762
425   -2  1  0.000272 28.553006 34.263451
426   -2  1  1.427953 29.980654 35.691067
427   -2  1  0.000281 28.553007 37.118757
428   -2  1  1.427935 29.980647 38.546398
429   -2  1  0.000283 28.553006 39.974088
430   -2  1  1.427915 29.980639 41.401744
431   -2  1  0.000285 28.553002 42.829435
432   -2  1  1.427901 29.980629 44.257090
433   -2  1  0.000283 28.552997 45.684780
434   -2  1  1.427890 29.980618 47.112421
435   -2  1  0.000268 28.552992 48.540107
436   -2  1  1.427865 29.980610 49.967725
437   -2  1  0.000225 28.552988 51.395402
438   -2  1  1.427809 29.980606 52.822994
439   -2  1  0.000145 28.552986 54.250659
440   -2  1  1.427714 29.980607 55.678227
441   -2  1  0.000026 31.408231 57.105884
442   -2  1  1.427570 32.835874  1.427427
443   -2  1 57.105891 31.408246  2.855095
444   -2  1  1.427418 32.835909  4.282619
445   -2  1 57.105766 31.408269  5.710322
446   -2  1  1.427283 32.835953  7.137834
447   -2  1 57.105682 31.408296  8.565591
448   -2  1  1.427205 32.836001  9.993104
449   -2  1 57.105663 31.408324 11.420913
450   -2  1  1.427211 32.836042 12.848438
451   -2  1 57.105712 31.408345 14.276276
452   -2  1  1.427300 32.836069 15.703821
453   -2  1 57.105808 31.408358 17.131653
454   -2  1  1.427439 32.836080 18.559216
455   -2  1 57.105924 31.408362 19.987015
456   -2  1  1.427590 32.836078 21.414589
457   -2  1  0.000034 31.408359 22.842344
458   -2  1  1.427723 32.836064 24.269927
459   -2  1  0.000125 31.408350 25.697641
460   -2  1  1.427823 32.836038 27.125236
461   -2  1  0.000192 31.408338 28.552919
462   -2  1  1.427887 32.836007 29.980532
463   -2  1  0.000236 31.408326 31.408197
464   -2  1  1.427916 32.835979 32.835832
465   -2  1  0.000261 31.408316 34.263487
466   -2  1  1.427919 32.835960 35.691146
467   -2  1  0.000272 31.408306 37.118798
468   -2  1  1.427907 32.835945 38.546476
469   -2  1  0.000276 31.408294 39.974128
470   -2  1  1.427893 32.835927 41.401813
471   -2  1  0.000279 31.408278 42.829468
472   -2  1  1.427883 32.835903 44.257145
473   -2  1  0.000278 31.408259 45.684805
474   -2  1  1.427874 32.835879 47.112459
475   -2  1  0.000263 31.408242 48.540123
476   -2  1  1.427851 32.835859 49.967749
477   -2  1  0.000221 31.408230 51.395411
478   -2  1  1.427797 32.835850 52.823006
479   -2  1  0.000141 31.408226 54.250663
480   -2  1  1.427702 32.835854 55.678230
481   -2  1  0.000016 34.263485 57.105882
482   -2  1  1.427548 35.691151  1.427416
483   -2  1 57.105882 34.263516  2.855080
484   -2  1  1.427396 35.691212  4.282588
485   -2  1 57.105755 34.263562  5.710291
486   -2  1  1.427258 35.691291  7.137780
487   -2  1 57.105668 34.263618  8.565540
488   -2  1  1.427173 35.691374  9.993023
489   -2  1 57.105644 34.263670 11.420842
490   -2  1  1.427169 35.691438 12.848335
491   -2  1 57.105685 34.263707 14.276191
492   -2  1  1.427243 35.691472 15.703711
493   -2  1 57.105774 34.263723 17.131568
494   -2  1  1.427368 35.691476 18.559119
495   -2  1 57.105884 34.263722 19.986945
496   -2  1  1.427508 35.691459 21.414524
497   -2  1 57.105991 34.263710 22.842301
498   -2  1  1.427636 35.691427 24.269907
499   -2  1  0.000082 34.263691 25.697634
500   -2  1  1.427735 35.691387 27.125265
501   -2  1  0.000151 34.263669 28.552949
502   -2  1  1.427802 35.691347 29.980605
503   -2  1  0.000198 34.263650 31.408258
504   -2  1  1.427839 35.691315 32.835939
505   -2  1  0.000228 34.263637 34.263573
506   -2  1  1.427853 35.691296 35.691275
507   -2  1  0.000246 34.263627 37.118897
508   -2  1  1.427852 35.691283 38.546613
509   -2  1  0.000256 34.263611 39.974227
510   -2  1  1.427848 35.691261 41.401941
511   -2  1  0.000263 34.263583 42.829554
512   -2  1  1.427847 35.691222 44.257249
513   -2  1  0.000265 34.263547 45.684870
514   -2  1  1.427843 35.691175 47.112534
515   -2  1  0.000251 34.263511 48.540167
516   -2  1  1.427824 35.691134 49.967796
517   -2  1  0.000210 34.263485 51.395436
518   -2  1  1.427773 35.691112 52.823031
519   -2  1  0.000130 34.263475 54.250673
520   -2  1  1.427680 35.691117 55.678236
521   -2  1 57.106000 37.118758 57.105879
522   -2  1  1.427514 38.546454  1.427397
523   -2  1 57.105866 37.118808  2.855054
524   -2  1  1.427360 38.546552  4.282537
525   -2  1 57.105738 37.118889  5.710237
526   -2  1  1.427219 38.546679  7.137691
527   -2  1 57.105647 37.118981  8.565453
528   -2  1  1.427128 38.546799  9.992897
529   -2  1 57.105615 37.119059 11.420726
530   -2  1  1.427112 38.546874 12.848195
531   -2  1 57.105645 37.119100 14.276066
532   -2  1  1.427169 38.546892 15.703583
533   -2  1 57.105722 37.119103 17.131456
534   -2  1  1.427276 38.546873 18.559022
535   -2  1 57.105823 37.119084 19.986861
536   -2  1  1.427400 38.546835 21.414466
537   -2  1 57.105924 37.119057 22.842254
538   -2  1  1.427518 38.546788 24.269892
539   -2  1  0.000013 37.119027 25.697628
540   -2  1  1.427614 38.546741 27.125294
541   -2  1  0.000085 37.119000 28.552983
542   -2  1  1.427685 38.546699 29.980676
543   -2  1  0.000138 37.118981 31.408330
544   -2  1  1.427732 38.546671 32.836046
545   -2  1  0.000176 37.118974 34.263678
546   -2  1  1.427760 38.546660 35.691413
547   -2  1  0.000202 37.118975 37.119029
548   -2  1  1.427773 38.546662 38.546778
549   -2  1  0.000221 37.118971 39.974373
550   -2  1  1.427781 38.546655 41.402118
551   -2  1  0.000234 37.118941 42.829693
552   -2  1  1.427788 38.546611 44.257409
553   -2  1  0.000240 37.118885 45.684980
554   -2  1  1.427792 38.546533 47.112654
555   -2  1  0.000230 37.118819 48.540241
556   -2  1  1.427779 38.546455 49.967872
557   -2  1  0.000190 37.118767 51.395479
558   -2  1  1.427734 38.546406 52.823070
559   -2  1  0.000113 37.118744 54.250691
560   -2  1  1.427645 38.546404 55.678245
561   -2  1 57.105976 39.974052 57.105872
562   -2  1  1.427464 41.401795  1.427364
563   -2  1 57.105842 39.974136  2.855012
564   -2  1  1.427305 41.401953  4.282451
565   -2  1 57.105713 39.974270  5.710149
566   -2  1  1.427163 41.402146  7.137543
567   -2  1 57.105619 39.974410  8.565316
568   -2  1  1.427072 41.402287  9.992719
569   -2  1 57.105579 39.974498 11.420567
570   -2  1  1.427051 41.402324 12.848045
571   -2  1 57.105599 39.974512 14.275926
572   -2  1  1.427096 41.402295 15.703483
573   -2  1 57.105663 39.974482 17.131352
574   -2  1  1.427182 41.402251 18.558959
575   -2  1 57.105751 39.974443 19.986791
576   -2  1  1.427287 41.402203 21.414432
577   -2  1 57.105844 39.974404 22.842217
578   -2  1  1.427391 41.402152 24.269886
579   -2  1 57.105929 39.974369 25.697623
580   -2  1  1.427483 41.402105 27.125316
581   -2  1  0.000002 39.974341 28.553012
582   -2  1  1.427557 41.402066 29.980727
583   -2  1  0.000062 39.974324 31.408391
584   -2  1  1.427614 41.402041 32.836125
585   -2  1  0.000109 39.974322 34.263771
586   -2  1  1.427655 41.402035 35.691522
587   -2  1  0.000145 39.974339 37.119157
588   -2  1  1.427683 41.402054 38.546923
589   -2  1  0.000173 39.974365 39.974541
590   -2  1  1.427699 41.402088 41.402313
591   -2  1  0.000192 39.974364 42.829882
592   -2  1  1.427708 41.402082 44.257632
593   -2  1  0.000202 39.974300 45.685148
594   -2  1  1.427714 41.401987 47.112842
595   -2  1  0.000195 39.974190 48.540357
596   -2  1  1.427708 41.401847 49.967990
597   -2  1  0.000159 39.974089 51.395544
598   -2  1  1.427675 41.401742 52.823128
599   -2  1  0.000087 39.974036 54.250717
600   -2  1  1.427596 41.401722 55.678256
601   -2  1 57.105944 42.829368 57.105861
602   -2  1  1.427383 44.257191  1.427304
603   -2  1 57.105807 42.829520  2.854941
604   -2  1  1.427207 44.257477  4.282278
605   -2  1 57.105677 42.829751  5.709989
606   -2  1  1.427076 44.257746  7.137274
607   -2  1 57.105584 42.829931  8.565098
608   -2  1  1.427013 44.257798  9.992507
609   -2  1 57.105545 42.829958 11.420389
610   -2  1  1.427010 44.257708 12.847961
611   -2  1 57.105559 42.829894 14.275826
612   -2  1  1.427047 44.257640 15.703453
613   -2  1 57.105610 42.829835 17.131292
614   -2  1  1.427115 44.257592 18.558943
615   -2  1 57.105684 42.829789 19.986752
616   -2  1  1.427199 44.257550 21.414422
617   -2  1 57.105766 42.829751 22.842194
618   -2  1  1.427288 44.257508 24.269884
619   -2  1 57.105846 42.829718 25.697619
620   -2  1  1.427372 44.257468 27.125327
621   -2  1 57.105920 42.829692 28.553028
622   -2  1  1.427447 44.257433 29.980752
623   -2  1 57.105984 42.829676 31.408430
624   -2  1  1.427512 44.257407 32.836166
625   -2  1  0.000040 42.829674 34.263831
626   -2  1  1.427565 44.257397 35.691578
627   -2  1  0.000086 42.829694 37.119243
628   -2  1  1.427603 44.257415 38.547001
629   -2  1  0.000121 42.829747 39.974672
630   -2  1  1.427621 44.257483 41.402449
631   -2  1  0.000142 42.829822 42.830095
632   -2  1  1.427613 44.257599 44.257895
633   -2  1  0.000149 42.829820 45.685402
634   -2  1  1.427597 44.257590 47.113156
635   -2  1  0.000142 42.829671 48.540549
636   -2  1  1.427588 44.257373 49.968202
637   -2  1  0.000112 42.829473 51.395643
638   -2  1  1.427584 44.257139 52.823219
639   -2  1  0.000051 42.829352 54.250753
640   -2  1  1.427524 44.257079 55.678271
641   -2  1 57.105908 45.684683 57.105845
642   -2  1  1.427234 47.112703  1.427173
643   -2  1 57.105739 45.685036  2.854782
644   -2  1  1.426986 47.113340  4.281800
645   -2  1 57.105613 45.685447  5.709635
646   -2  1  1.426947 47.113481  7.136816
647   -2  1 57.105545 45.685514  8.564795
648   -2  1  1.426985 47.113130  9.992449
649   -2  1 57.105527 45.685317 11.420307
650   -2  1  1.427009 47.112969 12.848003
651   -2  1 57.105540 45.685201 14.275813
652   -2  1  1.427042 47.112911 15.703493
653   -2  1 57.105580 45.685146 17.131286
654   -2  1  1.427093 47.112882 18.558965
655   -2  1 57.105640 45.685113 19.986742
656   -2  1  1.427160 47.112856 21.414430
657   -2  1 57.105711 45.685086 22.842184
658   -2  1  1.427235 47.112827 24.269885
659   -2  1 57.105785 45.685061 25.697614
660   -2  1  1.427311 47.112797 27.125327
661   -2  1 57.105857 45.685039 28.553034
662   -2  1  1.427385 47.112768 29.980756
663   -2  1 57.105924 45.685022 31.408445
664   -2  1  1.427452 47.112742 32.836174
665   -2  1 57.105986 45.685015 34.263855
666   -2  1  1.427511 47.112723 35.691586
667   -2  1  0.000039 45.685024 37.119273
668   -2  1  1.427555 47.112725 38.547006
669   -2  1  0.000079 45.685071 39.974717
670   -2  1  1.427572 47.112778 41.402459
671   -2  1  0.000096 45.685195 42.830214
672   -2  1  1.427539 47.112957 44.258006
673   -2  1  0.000082 45.685413 45.685742
674   -2  1  1.427429 47.113344 47.113662
675   -2  1  0.000054 45.685375 48.540937
676   -2  1  1.427341 47.113248 49.968719
677   -2  1  0.000029 45.684994 51.395831
678   -2  1  1.427421 47.112658 52.823383
679   -2  1  0.000009 45.684670 54.250795
680   -2  1  1.427393 47.112531 55.678285
681   -2  1 57.105993 48.539885 57.105949
682   -2  1  1.426540 49.969051  1.426496
683   -2  1 57.105547 48.541077  2.854199
684   -2  1  1.426585 49.970009  4.280340
685   -2  1 57.105499 48.541496  5.708838
686   -2  1  1.426882 49.968625  7.136868
687   -2  1 57.105531 48.540782  8.564769
688   -2  1  1.427013 49.968233  9.992635
689   -2  1 57.105538 48.540517 11.420399
690   -2  1  1.427050 49.968141 12.848126
691   -2  1 57.105550 48.540439 14.275877
692   -2  1  1.427078 49.968120 15.703565
693   -2  1 57.105580 48.540413 17.131316
694   -2  1  1.427119 49.968111 18.559003
695   -2  1 57.105630 48.540399 19.986750
696   -2  1  1.427174 49.968100 21.414445
697   -2  1 57.105691 48.540385 22.842182
698   -2  1  1.427238 49.968085 24.269886
699   -2  1 57.105758 48.540370 25.697609
700   -2  1  1.427307 49.968065 27.125321
701   -2  1 57.105827 48.540353 28.553030
702   -2  1  1.427376 49.968043 29.980747
703   -2  1 57.105895 48.540338 31.408444
704   -2  1  1.427442 49.968020 32.836162
705   -2  1 57.105959 48.540325 34.263853
706   -2  1  1.427500 49.967999 35.691568
707   -2  1  0.000014 48.540320 37.119261
708   -2  1  1.427545 49.967986 38.546968