Generated by pymatgen.io.lammps.data.LammpsData

1236  atoms

   1  atom types

0.000000 28.553120  xlo xhi
0.000000 28.553120  ylo yhi
0.000000 28.553120  zlo zhi
0.000000 0.000000 0.000000  xy xz yz

Masses

1  55.847

Atoms

1     1  1 28.511460 28.511464 28.514397
2     1  1  0.000746 28.551262  2.860372
3     1  1 -0.000182  0.000517  5.709955
4     1  1 28.552711 -0.000075  8.567016
5     1  1 28.550608 28.547175 11.414960
6     1  1 28.551813 28.549684 14.272688
7     1  1 28.552296 28.552239 17.130414
8     1  1 28.551960  0.001394 19.985477
9     1  1  0.000350  0.003270 22.841525
10    1  1 28.511220 28.512676 25.739035
11    1  1 28.552369  2.855760  0.003650
12    1  1 28.549976  2.852937  2.852997
13    1  1 28.549279  2.858349  5.707825
14    1  1 28.551417  2.856802  8.565740
15    1  1 28.551408  2.857220 11.422909
16    1  1  0.000406  2.853139 14.272241
17    1  1  0.000222  2.854667 17.131656
18    1  1 28.550979  2.858734 19.983970
19    1  1 28.549209  2.855075 22.847713
20    1  1 28.552339  2.856702 25.697561
21    1  1 28.552183  5.711771  0.001369
22    1  1 28.551223  5.711228  2.855013
24    1  1 28.552605  5.711062  8.564714
25    1  1  0.001387  5.709059 11.420722
26    1  1 28.512026  5.751031 14.316538
27    1  1 28.511420  5.751147 17.089708
28    1  1  0.000166  5.708616 19.987425
29    1  1 28.550618  5.710730 22.845143
30    1  1 28.551834  5.711746 25.699329
31    1  1  0.002222  8.567236  0.001251
32    1  1 28.552029  8.567310  2.856119
33    1  1 28.551240  8.567053  5.709472
34    1  1  0.000175  8.566969  8.565065
35    1  1  0.002329  8.568502 11.421024
36    1  1 28.512733  8.526197 14.316829
37    1  1 28.512270  8.526240 17.089454
38    1  1  0.000737  8.568409 19.986212
39    1  1 28.550863  8.566954 22.844649
40    1  1 28.551944  8.567097 25.699419
41    1  1 28.551701 11.422540  0.001881
42    1  1 28.551920 11.422093  2.856693
45    1  1  0.001261 11.420168 11.424459
46    1  1  0.003379 11.424288 14.273461
47    1  1  0.003783 11.424766 17.129385
48    1  1 28.552279 11.418757 19.982370
50    1  1 28.551292 11.422126 25.699858
51    1  1 28.550322 14.278450  0.004474
52    1  1 28.549916 14.277457  2.858463
53    1  1 28.552315 14.273527  5.710215
54    1  1 28.554173 14.272778  8.568761
55    1  1 28.552450 14.277031 11.420619
56    1  1  0.000580 14.278881 14.273886
57    1  1  0.001243 14.277926 17.128473
61    1  1 28.550411 17.133581  0.004355
62    1  1 28.530586 17.157115  2.883046
63    1  1 28.557104 17.133082  5.702707
64    1  1 28.552185 17.128888  8.565475
65    1  1 28.551967 17.132732 11.418024
66    1  1 28.553211 17.132792 14.273798
67    1  1  0.001101 17.132025 17.128995
71    1  1 28.553167 19.986502  0.001491
72    1  1 28.556670 19.980248  2.860521
73    1  1  0.063623 20.002859  5.724408
74    1  1 28.464230 20.048467  8.475491
75    1  1 28.551843 19.988287 11.413608
76    1  1  0.000203 19.986846 14.274382
80    1  1 28.552494 19.986731 25.698080
81    1  1  0.003806 22.844607 -0.000641
82    1  1 28.559108 22.845149  2.848437
83    1  1 28.439361 22.793326  5.799870
84    1  1 28.475971 22.836080  8.486592
85    1  1  0.006202 22.841468 11.419010
86    1  1  0.002067 22.840204 14.275124
89    1  1 28.552475 22.845873 22.845543
90    1  1  0.001330 22.843086 25.695905
91    1  1 28.511812 25.739150 28.512655
92    1  1  0.006715 25.697464  2.855967
93    1  1 28.505245 25.647835  5.757280
94    1  1 28.505367 25.646654  8.517862
95    1  1 -0.003434 25.690397 11.412134
96    1  1 28.552462 25.695409 14.274006
98    1  1  0.000007 25.697180 19.985595
99    1  1  0.001107 25.696618 22.841676
100   1  1 28.511474 25.739479 25.738493
101   1  1  2.854019 28.553264  0.003943
102   1  1  2.843544 28.544344  2.860846
103   1  1  2.849038 28.548060  5.710964
104   1  1  2.848541 28.548568  8.564610
105   1  1  2.845827 28.544754 11.412870
109   1  1  2.850555  0.000603 22.844875
110   1  1  2.854377  0.001754 25.696531
111   1  1  2.850738  2.850504  0.001537
112   1  1  2.847194  2.847807  2.850333
115   1  1  2.847025  2.859420 11.425652
116   1  1  2.850477  2.856298 14.274946
117   1  1  2.850835  2.857392 17.130713
118   1  1  2.847204  2.860455 19.981924
119   1  1  2.847117  2.849954 22.848168
120   1  1  2.850835  2.851530 25.698996
125   1  1  2.851359  5.710646 11.424003
126   1  1  2.854941  5.708286 14.274195
127   1  1  2.854628  5.708377 17.132997
128   1  1  2.850375  5.710272 19.984471
135   1  1  2.852273  8.566292 11.424290
136   1  1  2.855887  8.568379 14.274455
137   1  1  2.855558  8.568745 17.132560
138   1  1  2.851296  8.566743 19.982973
144   1  1  2.855226 11.422288  8.567246
145   1  1  2.850225 11.416652 11.427230
146   1  1  2.853295 11.420618 14.275378
147   1  1  2.852943 11.421351 17.128572
148   1  1  2.848941 11.416425 19.979967
153   1  1  2.854920 14.278232  5.711902
154   1  1  2.869382 14.292103  8.582200
155   1  1  2.859335 14.284156 11.420227
156   1  1  2.870442 14.293994 14.259013
157   1  1  2.855905 14.278234 17.129406
162   1  1  2.853025 17.134013  2.858620
163   1  1  2.854207 17.133417  5.713488
164   1  1  2.858135 17.132328  8.574334
165   1  1  2.802541 17.143223 11.408856
166   1  1  2.859577 17.134616 14.266497
167   1  1  2.855835 17.132718 17.130052
171   1  1  2.852559 19.987959  0.002325
172   1  1  2.849352 19.993970  2.861506
173   1  1  2.860432 19.986004  5.707623
174   1  1  2.863218 19.973497  8.579239
175   1  1  2.848696 19.986180 11.407880
176   1  1  2.868968 19.972189 14.257459
177   1  1  2.856085 19.986390 17.129894
181   1  1  2.850712 22.846436  0.001147
182   1  1  2.846326 22.851945  2.852659
183   1  1  2.853146 22.839161  5.706651
184   1  1  2.855077 22.842465  8.570913
185   1  1  2.845403 22.838464 11.409728
186   1  1  2.854486 22.840314 14.272364
189   1  1  2.848481 22.848591 22.848516
190   1  1  2.851071 22.846164 25.698539
191   1  1  2.854086 25.695645  0.003519
192   1  1  2.841010 25.689535  2.864506
193   1  1  2.848618 25.692505  5.710157
194   1  1  2.847157 25.691314  8.562138
195   1  1  2.844590 25.690720 11.409761
199   1  1  2.851282 25.698315 22.845249
200   1  1  2.854899 25.696784 25.696023
201   1  1  5.709529 28.550041  0.002717
210   1  1  5.710818 28.551651 25.698383
226   1  1  5.710249  5.709593 14.275823
227   1  1  5.710103  5.709754 17.131735
236   1  1  5.711139  8.566860 14.275901
237   1  1  5.711014  8.567429 17.130921
244   1  1  5.710825 11.424294  8.567786
245   1  1  5.711112 11.420748 11.421619
246   1  1  5.711273 11.424742 14.274928
253   1  1  5.711298 14.278984  5.713521
254   1  1  5.708931 14.283916  8.574243
255   1  1  5.709884 14.239172 11.421089
256   1  1  5.708555 14.285824 14.267355
257   1  1  5.711598 14.279345 17.129291
263   1  1  5.710946 17.132813  5.710410
264   1  1  5.709664 17.132821  8.528612
265   1  1 27.124739 27.126163 24.230532
266   1  1  5.709250 17.134013 14.311153
267   1  1  5.711975 17.133141 17.132449
273   1  1  5.710915 19.986978  5.711813
274   1  1  5.710039 19.980723  8.571974
275   1  1  5.708661 20.025861 11.418284
276   1  1  5.708496 19.980896 14.266144
277   1  1  5.711863 19.986556 17.129252
279   1  1  5.708521 19.987883 22.843430
280   1  1  5.707821 19.988095 25.699600
283   1  1  5.712557 22.838217  5.713470
284   1  1  5.711752 22.840243  8.566835
285   1  1  5.709314 22.842738 11.418378
286   1  1  5.709421 22.839710 14.272068
289   1  1  5.708789 22.843118 22.843409
290   1  1  5.708516 22.842969 25.699432
291   1  1  5.710165 25.696399  0.001841
293   1  1  5.709039 25.696098  5.710689
294   1  1  5.708752 25.696669  8.564846
300   1  1  5.710775 25.696926 25.698267
344   1  1  8.565652 11.424417  8.567120
345   1  1  8.565805 11.423841 11.420760
346   1  1  8.565962 11.424897 14.274614
353   1  1  8.565784 14.279155  5.712864
354   1  1  8.565543 14.308306  8.596798
355   1  1  8.565638 14.289223 11.420400
356   1  1  8.565370 14.308678 14.244928
357   1  1  8.565419 14.279637 17.129872
361   1  1  8.571924 17.139179 28.548039
363   1  1  8.565177 17.132088  5.712240
364   1  1  8.564996 17.132018  8.577433
365   1  1  8.565336 17.132317 11.420367
366   1  1  8.565003 17.132680 14.263629
367   1  1  8.565437 17.133143 17.130532
368   1  1  8.571370 17.138313 19.993290
369   1  1  8.568718 17.135622 22.843485
370   1  1  8.568913 17.136003 25.698706
371   1  1  8.569004 19.987818 28.550941
373   1  1  8.564995 19.985769  5.712593
374   1  1  8.565183 19.956028  8.596463
375   1  1  8.565385 19.975584 11.419909
376   1  1  8.564868 19.956641 14.244105
377   1  1  8.565227 19.986194 17.129516
378   1  1  8.568524 19.987451 19.990531
379   1  1  8.565316 19.985668 22.841636
380   1  1  8.565498 19.985853 25.700898
381   1  1  8.569272 22.841724 28.551271
384   1  1  8.565435 22.840386  8.566729
385   1  1  8.565456 22.840882 11.419855
386   1  1  8.565038 22.840202 14.273483
388   1  1  8.568585 22.841194 19.989472
389   1  1  8.565512 22.843922 22.841281
390   1  1  8.565775 22.843935 25.700895
391   1  1  8.572573 25.690231 28.548858
398   1  1  8.571350 25.690409 19.992101
399   1  1  8.568975 25.693951 22.842795
400   1  1  8.569444 25.693759 25.698677
409   1  1 11.421689 28.552832 22.842300
410   1  1 11.421884 28.552422 25.699008
444   1  1 11.420115 11.424864  8.566594
445   1  1 11.419949 11.421904 11.420168
446   1  1 11.419880 11.425310 14.274493
452   1  1 11.423687 14.280001  2.856365
453   1  1 11.422197 14.279730  5.713498
454   1  1 11.422552 14.285218  8.572008
455   1  1 11.422747 14.241736 11.418118
456   1  1 11.421157 14.284582 14.268543
457   1  1 11.420267 14.278979 17.129315
459   1  1 11.421601 14.276723 22.842675
460   1  1 11.422057 14.277366 25.699204
461   1  1 11.424066 17.135999 28.552320
462   1  1 11.422932 17.132752  2.856404
463   1  1 11.420660 17.131867  5.710269
464   1  1 11.421210 17.131552  8.527262
465   1  1 27.124960 27.126208 21.411219
466   1  1 11.420042 17.131737 14.313700
467   1  1 11.419710 17.132165 17.132581
468   1  1 11.421690 17.134901 19.990051
469   1  1 11.420112 17.131880 22.841309
470   1  1 11.420592 17.132247 25.700591
471   1  1 11.421916 19.985211  0.002704
472   1  1 11.421771 19.986270  2.857505
473   1  1 11.416938 19.985338  5.713593
474   1  1 11.420880 19.979389  8.572189
475   1  1 11.421260 20.024622 11.418837
476   1  1 11.420329 19.979770 14.268320
477   1  1 11.419100 19.985475 17.128360
478   1  1 11.419230 19.984911 19.986411
479   1  1 11.462412 20.027813 22.883704
480   1  1 11.462998 20.027984 25.658056
481   1  1 11.421808 22.843031  0.002869
482   1  1 11.421844 22.840513  2.858215
483   1  1 11.419361 22.836928  5.715587
484   1  1 11.420349 22.838955  8.566290
485   1  1 11.420949 22.842311 11.418759
486   1  1 11.419521 22.839481 14.274010
487   1  1 11.418248 22.837757 17.126297
488   1  1 11.419004 22.842848 19.985670
489   1  1 11.462272 22.801183 22.883375
490   1  1 11.462961 22.801035 25.658109
491   1  1 11.424777 25.691063  0.000441
493   1  1 11.422960 25.694733  5.711824
498   1  1 11.421523 25.693124 19.989124
499   1  1 11.420027 25.697221 22.840742
500   1  1 11.420660 25.696879 25.700677
509   1  1 14.278124  0.000081 22.842693
510   1  1 14.278343 28.552658 25.699314
515   1  1 14.279382  2.856700 11.420590
524   1  1 14.278758  5.711639  8.565859
525   1  1 14.277897  5.711390 11.420636
526   1  1 14.277981  5.711346 14.275344
533   1  1 14.279005  8.567517  5.713077
534   1  1 14.278025  8.567087  8.565957
535   1  1 14.274184  8.567179 11.420456
536   1  1 14.277184  8.567395 14.274935
537   1  1 14.278396  8.567697 17.128752
544   1  1 14.277802 11.422931  8.566598
545   1  1 14.277123 11.423314 11.419970
546   1  1 14.276950 11.423894 14.273734
552   1  1 14.278794 14.278677  2.856809
553   1  1 14.280285 14.275997  5.714157
554   1  1 14.264823 14.291734  8.580495
555   1  1 14.273422 14.283637 11.418643
556   1  1 14.263235 14.291947 14.259168
557   1  1 14.278471 14.276555 17.128165
559   1  1 14.278330 14.276278 22.843190
560   1  1 14.278685 14.277068 25.699525
561   1  1 14.278870 17.135905 28.552060
562   1  1 14.293365 17.147472  2.871924
563   1  1 14.283468 17.137284  5.712172
564   1  1 14.286802 17.146651  8.556435
565   1  1 14.317170 17.131503 11.419397
566   1  1 14.270778 17.131437 14.269144
567   1  1 14.276291 17.131791 17.130564
568   1  1 14.277106 17.134438 19.990019
569   1  1 14.279764 17.131478 22.841394
570   1  1 14.280319 17.131822 25.700583
571   1  1 14.280132 19.985096  0.002054
572   1  1 14.283451 19.986236  2.863566
573   1  1 14.236788 19.985702  5.712742
574   1  1 14.267397 19.970168  8.575145
575   1  1 14.270702 19.979688 11.420031
576   1  1 14.260879 19.970609 14.259874
577   1  1 14.275896 19.985559 17.129507
578   1  1 14.278330 19.984812 19.986426
579   1  1 14.236684 20.027738 22.883659
580   1  1 14.237341 20.027746 25.658022
581   1  1 14.279748 22.842657  0.002381
582   1  1 14.292204 22.825602  2.873193
583   1  1 14.281726 22.833320  5.713338
584   1  1 14.290787 22.825008  8.551271
585   1  1 14.276113 22.840066 11.419701
586   1  1 14.275635 22.840425 14.274681
587   1  1 14.275957 22.839801 17.128518
588   1  1 14.278039 22.843031 19.985862
589   1  1 14.236362 22.800968 22.883509
590   1  1 14.236946 22.800998 25.657963
591   1  1 14.277689 25.691730 28.552988
592   1  1 14.277267 25.694845  2.857186
593   1  1 14.277180 25.695897  5.711518
594   1  1 14.277302 25.696173  8.565034
598   1  1 14.276448 25.693207 19.989278
599   1  1 14.279076 25.697225 22.840906
600   1  1 14.279562 25.696835 25.700806
611   1  1 17.134965  2.856153  0.000928
614   1  1 17.134860  2.856511  8.565691
615   1  1 17.133893  2.855391 11.420606
616   1  1 17.133701  2.855035 14.275121
621   1  1 17.133827  5.711230  0.000740
622   1  1 17.134130  5.711437  2.855168
623   1  1 17.135930  5.711865  5.709917
624   1  1 17.149291  5.726479  8.580879
625   1  1 17.139094  5.717037 11.420773
626   1  1 17.147957  5.726087 14.260265
627   1  1 17.133268  5.711212 17.130277
630   1  1 17.134446  5.711150 25.699077
631   1  1 17.130512  8.566970  0.001045
632   1  1 17.133460  8.567293  2.855833
633   1  1 17.135183  8.567272  5.710292
634   1  1 17.139449  8.567105  8.571808
635   1  1 17.093120  8.567417 11.420569
636   1  1 17.138082  8.567514 14.269041
637   1  1 17.132348  8.567306 17.129955
639   1  1 17.134989  8.566575 22.844524
640   1  1 17.134125  8.566727 25.699238
641   1  1 17.134204 11.423267  0.001890
642   1  1 17.133927 11.423277  2.856294
643   1  1 17.133610 11.424194  5.712657
644   1  1 17.147879 11.409013  8.581131
645   1  1 17.137816 11.418955 11.419825
646   1  1 17.146576 11.409915 14.258769
647   1  1 17.130349 11.424593 17.127424
650   1  1 17.134704 11.422625 25.700240
651   1  1 17.135147 14.279562  0.003381
652   1  1 17.135242 14.278328  2.857052
653   1  1 17.135462 14.272125  5.711983
654   1  1 17.134514 14.277889  8.565360
655   1  1 17.134110 14.279729 11.417783
656   1  1 17.132917 14.277781 14.273759
661   1  1 17.129134 17.139816 28.550286
662   1  1 17.133330 17.139392  2.862966
663   1  1 17.132531 17.092848  5.712723
664   1  1 17.133152 17.138376  8.558941
665   1  1 17.136057 17.132337 11.419402
666   1  1 17.132479 17.132084 14.274924
667   1  1 17.130560 17.132316 17.130122
668   1  1 17.126576 17.137265 19.992708
669   1  1 17.130493 17.134909 22.843546
670   1  1 17.131537 17.135857 25.699301
671   1  1 17.131349 19.987759 28.549658
672   1  1 17.132885 19.987481  2.817598
674   1  1 17.131209 19.986117  8.604863
675   1  1 17.131613 19.985781 11.423069
676   1  1 17.131638 19.986088 14.275324
678   1  1 17.128927 19.987069 19.990040
679   1  1 17.133343 19.985466 22.841264
680   1  1 17.134673 19.985742 25.701077
681   1  1 17.130596 22.840656 28.552810
682   1  1 17.131696 22.834769  2.862815
683   1  1 17.129517 22.878190  5.713071
684   1  1 17.129846 22.833945  8.559957
685   1  1 17.130111 22.839145 11.419825
686   1  1 17.130837 22.840069 14.274896
688   1  1 17.128627 22.841379 19.989797
689   1  1 17.132940 22.843796 22.841226
690   1  1 17.134103 22.843595 25.701297
691   1  1 17.127506 25.688140 28.551116
692   1  1 17.131767 25.694893  2.856489
693   1  1 17.132029 25.699374  5.710967
694   1  1 17.132050 25.696279  8.564636
698   1  1 17.126386 25.691010 19.992669
699   1  1 17.129585 25.693970 22.843058
700   1  1 17.130294 25.693064 25.699476
701   1  1 19.987734 28.549746  0.002952
710   1  1 19.986993 28.550776 25.699199
711   1  1 19.989962  2.853438  0.001689
712   1  1 19.990033  2.854404  2.854889
714   1  1 19.990176  2.855616  8.566586
715   1  1 19.989777  2.851828 11.421033
716   1  1 19.989483  2.854067 14.274157
717   1  1 19.988550  2.856295 17.129333
720   1  1 19.989426  2.854552 25.699564
721   1  1 19.995274  5.715912  0.000756
722   1  1 20.004387  5.725419  2.839755
723   1  1 19.989902  5.711082  5.709635
724   1  1 19.989164  5.717022  8.572897
725   1  1 19.988570  5.671548 11.421453
726   1  1 19.987316  5.716467 14.269190
727   1  1 19.987380  5.710663 17.130614
729   1  1 19.990433  5.710623 22.843291
730   1  1 20.004712  5.725167 25.714097
731   1  1 19.949118  8.567060  0.001005
732   1  1 19.994022  8.567211  2.849466
733   1  1 19.988459  8.566871  5.707732
734   1  1 19.988261  8.566747  8.527825
736   1  1 19.986470  8.567356 14.314310
737   1  1 19.986547  8.567007 17.133593
739   1  1 19.989543  8.566561 22.842853
740   1  1 19.994816  8.566928 25.705123
741   1  1 19.994539 11.418443  0.002417
742   1  1 20.003546 11.408826  2.841442
743   1  1 19.988889 11.422380  5.711259
744   1  1 19.989054 11.416500  8.572732
745   1  1 19.988584 11.462193 11.420275
746   1  1 19.987483 11.416754 14.268700
747   1  1 19.987067 11.421834 17.129744
749   1  1 19.989140 11.421578 22.843187
750   1  1 20.003974 11.408464 25.715432
751   1  1 19.990849 14.284211  0.006753
752   1  1 19.990428 14.282776  2.858466
753   1  1 19.991223 14.278613  5.711881
754   1  1 19.991950 14.279704  8.565180
755   1  1 19.992177 14.284932 11.415245
756   1  1 19.988911 14.277412 14.274200
760   1  1 19.988728 14.278802 25.700707
761   1  1 19.991420 17.137412  0.006457
762   1  1 19.975176 17.150818  2.873734
763   1  1 19.985421 17.141475  5.712189
764   1  1 19.976169 17.150190  8.547562
765   1  1 19.989655 17.133108 11.418100
771   1  1 19.992523 19.989444  0.006105
772   1  1 19.985887 19.990681  2.865301
773   1  1 20.026579 19.989388  5.709789
774   1  1 19.981542 19.986607  8.559242
775   1  1 19.988036 19.986825 11.418753
779   1  1 19.989269 19.987792 22.842831
780   1  1 19.990702 19.988276 25.700174
781   1  1 19.991644 22.841187  0.005882
782   1  1 19.975802 22.826022  2.873082
783   1  1 19.980951 22.836652  5.708768
784   1  1 19.968281 22.827689  8.551873
785   1  1 19.986823 22.840366 11.418356
789   1  1 19.989094 22.843152 22.843195
790   1  1 19.990086 22.842603 25.700177
791   1  1 19.990458 25.690659  0.007186
792   1  1 19.988440 25.694465  2.856113
793   1  1 19.987638 25.696200  5.709489
794   1  1 19.986721 25.695866  8.564452
800   1  1 19.987587 25.695458 25.699752
801   1  1 22.842670 28.551791  0.004611
802   1  1 22.851553 28.545961  2.859518
803   1  1 22.845962 28.549844  5.711165
804   1  1 22.846121 28.549815  8.565990
805   1  1 22.850494 28.544158 11.413294
809   1  1 22.846012  0.000392 22.845379
810   1  1 22.842144 28.553301 25.697440
811   1  1 22.846252  2.847436  0.001573
812   1  1 22.849201  2.848871  2.850016
814   1  1 22.843352  2.856400  8.566726
815   1  1 22.849209  2.860199 11.425972
816   1  1 22.845662  2.857146 14.274104
817   1  1 22.845483  2.859195 17.128592
818   1  1 22.849174  2.860996 19.981472
819   1  1 22.849346  2.851158 22.849806
820   1  1 22.845958  2.851589 25.699813
821   1  1 22.843291  5.670624  0.000767
822   1  1 22.843375  5.716336  2.848674
823   1  1 22.842333  5.711493  5.710142
824   1  1 22.827749  5.726501  8.581947
825   1  1 22.839839  5.717203 11.424401
826   1  1 22.827109  5.724087 14.258453
827   1  1 22.841846  5.709058 17.131588
828   1  1 22.846301  5.710216 19.984084
829   1  1 22.843947  5.710746 22.843541
830   1  1 22.843298  5.716227 25.705177
831   1  1 27.124470 27.120077 12.843336
832   1  1 22.842544  8.567116  2.894820
833   1  1 22.841990  8.566574  5.714011
834   1  1 22.836774  8.566294  8.573276
835   1  1 22.885455  8.566307 11.424709
836   1  1 22.835859  8.568574 14.267903
837   1  1 22.841623  8.568198 17.131868
838   1  1 22.845992  8.566130 19.982928
839   1  1 22.843241  8.566710 22.839719
840   1  1 22.842680  8.567185 25.660010
841   1  1 22.842446 11.464223  0.002932
842   1  1 22.842176 11.417476  2.850441
843   1  1 22.841762 11.421545  5.711492
844   1  1 22.827397 11.406025  8.582203
845   1  1 22.841547 11.410397 11.426620
846   1  1 22.829591 11.404113 14.259891
847   1  1 22.844808 11.418330 17.129441
848   1  1 22.848430 11.415820 19.980185
849   1  1 22.843086 11.421213 22.842731
850   1  1 22.842480 11.417812 25.706433
851   1  1 22.842090 14.287539  0.008180
852   1  1 22.842114 14.281419  2.858335
853   1  1 22.843000 14.278287  5.712480
854   1  1 22.842522 14.279098  8.564888
855   1  1 22.839485 14.279461 11.417641
856   1  1 22.841664 14.276798 14.274450
857   1  1 22.842076 14.275179 17.129138
860   1  1 22.842547 14.278531 25.701060
861   1  1 22.843076 17.136005  0.006842
862   1  1 22.861729 17.153020  2.877345
863   1  1 22.859338 17.149385  5.719469
864   1  1 22.867904 17.158616  8.542315
865   1  1 22.843418 17.135259 11.416817
871   1  1 22.845560 19.990317  0.007118
872   1  1 22.866438 20.002956  2.879611
873   1  1 22.805807 19.990280  5.708249
874   1  1 22.846192 19.979724  8.567824
875   1  1 22.846581 19.993156 11.413408
881   1  1 22.847398 22.844147  0.006064
882   1  1 22.876620 22.827969  2.879682
883   1  1 22.846206 22.845255  5.697986
884   1  1 22.837108 22.840692  8.569949
885   1  1 22.843150 22.844727 11.415114
889   1  1 22.849146 22.848595 22.848539
890   1  1 22.846353 22.845607 25.699440
891   1  1 22.840082 25.692041  0.007358
892   1  1 22.849539 25.694854  2.858892
893   1  1 22.842200 25.697477  5.710442
894   1  1 22.839709 25.697494  8.570095
895   1  1 22.850169 25.687171 11.407257
899   1  1 22.845991 25.698151 22.845591
900   1  1 22.841988 25.695250 25.697470
901   1  1 25.738418 28.510386 28.514415
902   1  1 25.696186 28.550795  2.860519
903   1  1 25.694358  0.001262  5.709761
904   1  1 25.695147  0.000400  8.567280
905   1  1 25.697779 28.547227 11.415428
906   1  1 25.696920 28.549426 14.272453
907   1  1 25.696798 28.552342 17.130111
908   1  1 25.697210  0.001444 19.985519
909   1  1 25.695558  0.002969 22.841691
910   1  1 25.737975 28.511369 25.739748
911   1  1 25.695332  2.854548  0.003582
912   1  1 25.696840  2.852448  2.852958
913   1  1 25.694210  2.859688  5.710688
914   1  1 25.695451  2.858222  8.566454
915   1  1 25.696262  2.858762 11.423124
916   1  1 25.694219  2.854521 14.271821
917   1  1 25.693241  2.856739 17.129403
918   1  1 25.697221  2.858884 19.983672
919   1  1 25.697239  2.854224 22.847083
920   1  1 25.695121  2.855677 25.697911
921   1  1 25.691119  5.717423  0.001303
922   1  1 25.681871  5.726119  2.840131
923   1  1 25.695154  5.711639  5.710385
924   1  1 25.696499  5.711623  8.565949
925   1  1 25.695511  5.709694 11.420913
926   1  1 25.737260  5.751769 14.315928
927   1  1 25.736722  5.751723 17.088010
928   1  1 25.695642  5.708596 19.986923
929   1  1 25.696789  5.710896 22.844525
930   1  1 25.681782  5.726620 25.714322
931   1  1 25.736402  8.567456  0.001309
932   1  1 25.691166  8.567363  2.850310
933   1  1 25.695450  8.566871  5.711819
934   1  1 25.697143  8.566928  8.566253
935   1  1 25.698940  8.568602 11.421125
936   1  1 25.737750  8.526183 14.316117
937   1  1 25.737142  8.525667 17.087831
938   1  1 25.696046  8.568301 19.985778
939   1  1 25.696724  8.567087 22.843807
940   1  1 25.690926  8.567395 25.705473
941   1  1 25.690822 11.417789  0.002490
942   1  1 25.681767 11.407615  2.841970
943   1  1 25.695191 11.421044  5.712377
944   1  1 25.696619 11.420856  8.567601
945   1  1 25.696970 11.418529 11.424356
946   1  1 25.694890 11.422548 14.272800
947   1  1 25.694649 11.422193 17.129981
948   1  1 25.697894 11.418450 19.982153
949   1  1 25.696841 11.421066 22.843074
950   1  1 25.681305 11.408104 25.715571
951   1  1 25.696954 14.280985  0.005772
952   1  1 25.697884 14.279138  2.859578
953   1  1 25.694625 14.270086  5.712608
954   1  1 25.694205 14.273441  8.567687
955   1  1 25.694772 14.275826 11.420144
956   1  1 25.695212 14.276719 14.274052
957   1  1 25.695152 14.275261 17.127915
960   1  1 25.696221 14.277032 25.700496
961   1  1 25.698805 17.135457  0.005366
962   1  1 25.706937 17.149028  2.874580
963   1  1 25.696202 17.086535  5.709917
964   1  1 25.687143 17.133288  8.568514
965   1  1 25.698088 17.133701 11.418773
971   1  1 25.697617 19.987921  0.000018
972   1  1 25.697347 19.990016  2.816643
973   1  1 27.123851 27.114267  9.982474
974   1  1 25.710112 20.002691  8.626336
975   1  1 25.693866 19.986290 11.424493
980   1  1 25.697240 19.986937 25.698411
981   1  1 25.694708 22.843302  0.002392
982   1  1 25.686680 22.848758  2.856654
983   1  1 25.759949 22.962707  5.772145
984   1  1 25.785708 22.795784  8.448364
985   1  1 25.692338 22.839970 11.417269
986   1  1 25.697056 22.841480 14.275691
989   1  1 25.698129 22.845865 22.845617
990   1  1 25.695612 22.842752 25.696653
991   1  1 25.737582 25.737982 28.514149
992   1  1 25.696322 25.696768  2.858187
993   1  1 25.737380 25.660357  5.751855
994   1  1 25.742192 25.648026  8.517672
995   1  1 25.696595 25.691423 11.413378
996   1  1 25.697554 25.695487 14.274223
998   1  1 25.697927 25.697316 19.985742
999   1  1 25.695927 25.696515 22.841852
1000  1  1 25.737944 25.738946 25.739149
1001  1  1  1.410237  1.410355  1.415098
1002  1  1  1.424305  1.426324  4.283451
1003  1  1  1.424472  1.427826  7.137452
1004  1  1  1.424712  1.427242  9.993072
1005  1  1  1.425003  1.424594 12.845646
1006  1  1  1.425591  1.426601 15.702182
1007  1  1  1.425746  1.428368 18.558091
1008  1  1  1.424538  1.429746 21.414540
1009  1  1  1.410369  1.413169 24.285832
1010  1  1  1.419795  1.421235 27.126922
1011  1  1  1.425633  4.281949  1.428029
1014  1  1  1.425950  4.283505  9.993757
1015  1  1  1.411273  4.297276 12.863232
1016  1  1  1.420478  4.288059 15.702809
1017  1  1  1.410801  4.297873 18.543659
1018  1  1  1.424609  4.282344 21.416090
1019  1  1  1.425321  4.282608 24.271951
1020  1  1  1.425813  4.282100 27.126940
1021  1  1  1.427751  7.138973  1.428931
1024  1  1  1.426937  7.138745  9.993719
1025  1  1  1.421474  7.138546 12.854882
1026  1  1  1.466687  7.138472 15.703510
1027  1  1  1.420575  7.138452 18.552600
1028  1  1  1.425275  7.138691 21.414650
1030  1  1  1.427654  7.138634 27.126269
1031  1  1  1.427888  9.995184  1.429269
1034  1  1  1.427592  9.994095  9.994396
1035  1  1  1.413061  9.979614 12.864006
1036  1  1  1.422351  9.989285 15.702629
1037  1  1  1.412151  9.979857 18.542162
1038  1  1  1.425661  9.993737 21.413852
1040  1  1  1.427600  9.995078 27.126467
1043  1  1  1.432904 12.854514  7.144195
1044  1  1  1.430574 12.850029  9.995922
1045  1  1  1.430257 12.852559 12.848322
1046  1  1  1.433393 12.855956 15.696592
1047  1  1  1.427443 12.849509 18.556782
1051  1  1  1.417831 15.712890  1.438277
1052  1  1  1.426564 15.705130  4.282165
1053  1  1  1.428193 15.703401  7.140234
1054  1  1  1.424429 15.702767  9.989725
1055  1  1  1.427231 15.704610 12.847879
1056  1  1  1.430779 15.705829 15.699137
1061  1  1  1.425998 18.558149  1.431990
1062  1  1  1.428724 18.561690  4.286189
1063  1  1  1.427229 18.557858  7.152042
1064  1  1  1.398644 18.585994  9.962935
1065  1  1  1.424020 18.564936 12.845443
1066  1  1  1.430421 18.559796 15.699345
1071  1  1  1.426337 21.415006  1.428360
1072  1  1  1.414901 21.438370  4.291300
1073  1  1  1.472967 21.419063  7.146663
1074  1  1  1.400309 21.416718  9.962630
1075  1  1  1.428126 21.410810 12.843966
1076  1  1  1.433680 21.408096 15.696734
1079  1  1  1.426224 21.415782 24.270956
1080  1  1  1.426391 21.415591 27.125853
1081  1  1  1.411471 24.285774  1.413575
1082  1  1  1.399365 24.249661  4.308916
1083  1  1  1.449568 24.250651  7.130069
1084  1  1  1.404347 24.254222  9.969230
1085  1  1  1.426487 24.268386 12.844786
1088  1  1  1.426730 24.270524 21.414974
1089  1  1  1.411575 24.286233 24.285332
1090  1  1  1.421393 24.277797 27.124885
1091  1  1  1.421068 27.123999  1.424137
1092  1  1  1.407733 27.105988  4.302439
1093  1  1  1.416641 27.115114  7.137577
1094  1  1  1.407297 27.104799  9.973257
1095  1  1  1.424442 27.120443 12.843269
1098  1  1  1.426088 27.125936 21.414453
1099  1  1  1.420402 27.126287 24.275915
1100  1  1  1.465996 27.125659 27.126067
1101  1  1  4.278386  1.422570  1.430850
1109  1  1  4.280957  1.426606 24.270671
1110  1  1  4.281370  1.425403 27.126910
1115  1  1  4.280671  4.282151 12.848484
1116  1  1  4.281272  4.282128 15.703356
1117  1  1  4.280579  4.282542 18.559065
1125  1  1  4.282116  7.138240 12.849113
1126  1  1  4.285324  7.138322 15.703742
1127  1  1  4.281531  7.138446 18.558524
1134  1  1  4.281565  9.994115  9.994922
1135  1  1  4.282711  9.994114 12.849324
1136  1  1  4.283257  9.995411 15.702901
1137  1  1  4.282642  9.995632 18.556555
1143  1  1  4.282860 12.853711  7.142837
1144  1  1  4.278698 12.847964  9.994557
1145  1  1  4.279509 12.849632 12.849561
1146  1  1  4.282424 12.853291 15.699348
1152  1  1  4.282511 15.705636  4.284076
1153  1  1  4.279958 15.703807  7.139765
1154  1  1  4.321326 15.747427 10.035990
1155  1  1  4.319355 15.751078 12.801684
1156  1  1  4.280897 15.704944 15.701796
1157  1  1  4.283188 15.704993 18.558886
1162  1  1  4.283343 18.560015  4.282440
1163  1  1  4.279772 18.561980  7.139646
1164  1  1  4.317369 18.522524 10.030797
1165  1  1  4.317709 18.521413 12.801105
1166  1  1  4.280878 18.561919 15.701756
1167  1  1  4.283203 18.560128 18.559364