Generated by pymatgen.io.lammps.data.LammpsData

1236  atoms

   1  atom types

0.000000 28.553120  xlo xhi
0.000000 28.553120  ylo yhi
0.000000 28.553120  zlo zhi
0.000000 0.000000 0.000000  xy xz yz

Masses

1  55.847

Atoms

1     1  1 28.511641 28.512189 28.513624
2     1  1  0.001271 28.552520  2.859394
3     1  1  0.000279  0.001694  5.709445
4     1  1 28.552305  0.000315  8.566536
5     1  1 28.551185 28.546924 11.414840
6     1  1 28.552162 28.549154 14.272300
7     1  1 28.552314 28.552195 17.130407
8     1  1 28.551927  0.001347 19.985530
9     1  1  0.000280  0.003185 22.841591
10    1  1 28.511200 28.512723 25.738970
11    1  1 28.552437  2.856232  0.003224
12    1  1 28.550129  2.853393  2.852613
13    1  1 28.549373  2.858580  5.707692
14    1  1 28.551470  2.856967  8.565797
15    1  1 28.551645  2.857239 11.423001
16    1  1  0.000598  2.853036 14.272188
17    1  1  0.000225  2.854609 17.131650
18    1  1 28.550934  2.858713 19.984004
19    1  1 28.549146  2.855106 22.847679
20    1  1 28.552312  2.856941 25.697298
21    1  1 28.552167  5.712026  0.001213
22    1  1 28.551253  5.711386  2.854926
24    1  1 28.552631  5.711082  8.564732
25    1  1  0.001482  5.709105 11.420786
26    1  1 28.512116  5.751043 14.316569
27    1  1 28.511428  5.751147 17.089735
28    1  1  0.000123  5.708642 19.987442
29    1  1 28.550552  5.710839 22.845101
30    1  1 28.551772  5.711959 25.699216
31    1  1  0.002172  8.567413  0.001249
32    1  1 28.552031  8.567394  2.856105
33    1  1 28.551262  8.567051  5.709476
34    1  1  0.000208  8.566951  8.565087
35    1  1  0.002385  8.568519 11.421056
36    1  1 28.512783  8.526233 14.316848
37    1  1 28.512272  8.526241 17.089471
38    1  1  0.000714  8.568434 19.986244
39    1  1 28.550822  8.567034 22.844682
40    1  1 28.551890  8.567262 25.699431
41    1  1 28.551588 11.422766  0.001989
42    1  1 28.551901 11.422251  2.856763
45    1  1  0.001343 11.420230 11.424422
46    1  1  0.003450 11.424296 14.273487
47    1  1  0.003795 11.424730 17.129442
48    1  1 28.552284 11.418758 19.982382
50    1  1 28.551215 11.422255 25.699928
51    1  1 28.550116 14.278646  0.004633
52    1  1 28.549804 14.277825  2.858898
53    1  1 28.552341 14.273875  5.710846
54    1  1 28.553570 14.273497  8.568041
55    1  1 28.552718 14.277152 11.420399
56    1  1  0.000747 14.278600 14.274222
57    1  1  0.001268 14.277937 17.128495
61    1  1 28.550147 17.134032  0.004714
62    1  1 28.530188 17.156711  2.883014
63    1  1 28.555603 17.134566  5.707253
64    1  1 28.545095 17.135219  8.558129
65    1  1 28.551767 17.131859 11.418879
66    1  1 28.553518 17.132784 14.274017
67    1  1  0.001192 17.132104 17.128933
71    1  1 28.552859 19.986934  0.002422
72    1  1 28.554938 19.984738  2.863369
73    1  1  0.080737 19.986121  5.707763
74    1  1 28.493320 20.025443  8.504096
75    1  1 28.551372 19.988315 11.413771
76    1  1  0.000158 19.987274 14.273825
80    1  1 28.552422 19.986697 25.698297
81    1  1  0.002852 22.843675  0.000672
82    1  1 28.552061 22.838183  2.854661
83    1  1 28.469916 22.825353  5.775373
84    1  1 28.400773 22.780682  8.410557
85    1  1 -0.001471 22.835033 11.405348
86    1  1  0.001223 22.839840 14.273830
89    1  1 28.552413 22.845802 22.845625
90    1  1  0.001126 22.842844 25.696207
91    1  1 28.511886 25.738885 28.512791
92    1  1  0.007593 25.700060  2.853887
93    1  1 28.508218 25.653112  5.754470
94    1  1 28.500238 25.643717  8.512518
95    1  1 -0.002602 25.689546 11.410138
96    1  1 28.552919 25.694735 14.273375
98    1  1 -0.000018 25.697161 19.985628
99    1  1  0.001023 25.696518 22.841801
100   1  1 28.511315 25.739230 25.738767
101   1  1  2.854265 28.553669  0.003326
102   1  1  2.844431 28.545106  2.860028
103   1  1  2.849132 28.548180  5.711342
104   1  1  2.848548 28.548440  8.565014
105   1  1  2.845335 28.543581 11.412168
109   1  1  2.850521  0.000525 22.844898
110   1  1  2.854362  0.001686 25.696431
111   1  1  2.850836  2.850762  0.001231
112   1  1  2.847386  2.848058  2.850122
115   1  1  2.847035  2.859236 11.425586
116   1  1  2.850479  2.856253 14.274951
117   1  1  2.850804  2.857352 17.130715
118   1  1  2.847175  2.860441 19.981940
119   1  1  2.847099  2.849960 22.848131
120   1  1  2.850854  2.851656 25.698796
125   1  1  2.851398  5.710649 11.424017
126   1  1  2.854977  5.708287 14.274221
127   1  1  2.854626  5.708368 17.133019
128   1  1  2.850358  5.710270 19.984482
135   1  1  2.852282  8.566314 11.424283
136   1  1  2.855917  8.568403 14.274463
137   1  1  2.855577  8.568740 17.132581
138   1  1  2.851299  8.566739 19.982985
144   1  1  2.855181 11.422289  8.567273
145   1  1  2.850075 11.416789 11.427070
146   1  1  2.853317 11.420632 14.275370
147   1  1  2.852986 11.421307 17.128628
148   1  1  2.848948 11.416421 19.979977
153   1  1  2.854830 14.278124  5.712101
154   1  1  2.869178 14.292131  8.582379
155   1  1  2.858655 14.284626 11.419503
156   1  1  2.870441 14.293845 14.259185
157   1  1  2.855983 14.278289 17.129436
162   1  1  2.854925 17.131442  2.856458
163   1  1  2.856306 17.131189  5.713056
164   1  1  2.859208 17.131370  8.574061
165   1  1  2.804878 17.140527 11.410956
166   1  1  2.859758 17.134736 14.266461
167   1  1  2.855856 17.132967 17.129886
171   1  1  2.852269 19.988010  0.002456
172   1  1  2.850954 19.993719  2.860108
173   1  1  2.863352 19.983639  5.705306
174   1  1  2.864164 19.973002  8.578919
175   1  1  2.846175 19.989177 11.405163
176   1  1  2.867839 19.973689 14.256296
177   1  1  2.855880 19.986760 17.129603
181   1  1  2.850373 22.846378  0.001334
182   1  1  2.847189 22.851786  2.851926
183   1  1  2.854136 22.840164  5.706895
184   1  1  2.842029 22.836380  8.563292
185   1  1  2.842933 22.839665 11.407187
186   1  1  2.853309 22.841192 14.271140
189   1  1  2.848431 22.848564 22.848567
190   1  1  2.850907 22.846054 25.698685
191   1  1  2.853444 25.694931  0.003879
192   1  1  2.843215 25.691854  2.861578
193   1  1  2.846964 25.691227  5.712403
194   1  1  2.845341 25.690683  8.562796
195   1  1  2.840114 25.686365 11.405152
199   1  1  2.851215 25.698224 22.845310
200   1  1  2.854649 25.696471 25.696210
201   1  1  5.709801 28.550267  0.002301
210   1  1  5.710771 28.551551 25.698343
226   1  1  5.710241  5.709585 14.275819
227   1  1  5.710099  5.709746 17.131740
236   1  1  5.711131  8.566885 14.275881
237   1  1  5.711018  8.567427 17.130922
244   1  1  5.710869 11.424243  8.567845
245   1  1  5.711106 11.420750 11.421638
246   1  1  5.711237 11.424791 14.274880
253   1  1  5.711724 14.278584  5.713657
254   1  1  5.709351 14.283499  8.574419
255   1  1  5.709991 14.238973 11.421073
256   1  1  5.708773 14.285574 14.267580
257   1  1  5.711638 14.279432 17.129265
263   1  1  5.711658 17.132267  5.710460
264   1  1  5.710094 17.132599  8.528924
265   1  1 27.124655 27.126034 24.230721
266   1  1  5.708748 17.134739 14.310592
267   1  1  5.711742 17.133556 17.132130
273   1  1  5.711159 19.986799  5.711659
274   1  1  5.709472 19.981083  8.571885
275   1  1  5.707283 20.027547 11.417238
276   1  1  5.707711 19.981887 14.265382
277   1  1  5.711552 19.986932 17.128882
279   1  1  5.708542 19.987884 22.843445
280   1  1  5.707843 19.988092 25.699610
283   1  1  5.712204 22.838526  5.713674
284   1  1  5.710239 22.839880  8.565735
285   1  1  5.707817 22.843554 11.417208
286   1  1  5.708577 22.840280 14.271302
289   1  1  5.708797 22.843119 22.843430
290   1  1  5.708515 22.842946 25.699451
291   1  1  5.710300 25.696275  0.001630
293   1  1  5.708497 25.695706  5.711429
294   1  1  5.708019 25.696256  8.565060
300   1  1  5.710762 25.696833 25.698280
344   1  1  8.565792 11.424360  8.567174
345   1  1  8.565922 11.423813 11.420817
346   1  1  8.566007 11.424918 14.274622
353   1  1  8.565967 14.279112  5.712906
354   1  1  8.565770 14.308253  8.596925
355   1  1  8.565710 14.289272 11.420490
356   1  1  8.565321 14.308814 14.244921
357   1  1  8.565346 14.279815 17.129784
361   1  1  8.571969 17.139199 28.548059
363   1  1  8.565323 17.132094  5.712332
364   1  1  8.565001 17.132180  8.577613
365   1  1  8.565049 17.132641 11.420369
366   1  1  8.564595 17.133160 14.263298
367   1  1  8.565204 17.133445 17.130277
368   1  1  8.571310 17.138404 19.993207
369   1  1  8.568765 17.135641 22.843513
370   1  1  8.568973 17.136019 25.698746
371   1  1  8.569071 19.987814 28.550987
373   1  1  8.565034 19.985823  5.712632
374   1  1  8.564962 19.956316  8.596474
375   1  1  8.564911 19.976156 11.419640
376   1  1  8.564351 19.957085 14.243666
377   1  1  8.564974 19.986390 17.129241
378   1  1  8.568515 19.987452 19.990512
379   1  1  8.565385 19.985662 22.841685
380   1  1  8.565594 19.985847 25.700960
381   1  1  8.569341 22.841692 28.551312
384   1  1  8.565188 22.840492  8.566590
385   1  1  8.565054 22.841167 11.419508
386   1  1  8.564761 22.840356 14.273235
388   1  1  8.568623 22.841184 19.989496
389   1  1  8.565593 22.843897 22.841334
390   1  1  8.565885 22.843879 25.700933
391   1  1  8.572622 25.690195 28.548854
398   1  1  8.571383 25.690396 19.992127
399   1  1  8.569030 25.693925 22.842841
400   1  1  8.569500 25.693726 25.698705
409   1  1 11.421751 28.552777 22.842349
410   1  1 11.421959 28.552362 25.699045
444   1  1 11.420212 11.424928  8.566576
445   1  1 11.420043 11.421979 11.420161
446   1  1 11.419921 11.425377 14.274488
452   1  1 11.423781 14.280058  2.856369
453   1  1 11.422302 14.279829  5.713479
454   1  1 11.422656 14.285350  8.572019
455   1  1 11.422815 14.241898 11.418112
456   1  1 11.421133 14.284766 14.268488
457   1  1 11.420203 14.279118 17.129254
459   1  1 11.421654 14.276794 22.842712
460   1  1 11.422148 14.277435 25.699255
461   1  1 11.424232 17.136049 28.552450
462   1  1 11.423067 17.132801  2.856427
463   1  1 11.420757 17.131977  5.710300
464   1  1 11.421259 17.131726  8.527327
465   1  1 27.124904 27.126135 21.411310
466   1  1 11.419910 17.131992 14.313500
467   1  1 11.419596 17.132338 17.132439
468   1  1 11.421682 17.134986 19.990021
469   1  1 11.420234 17.131944 22.841405
470   1  1 11.420777 17.132322 25.700731
471   1  1 11.422127 19.985215  0.002861
472   1  1 11.421916 19.986303  2.857576
473   1  1 11.417003 19.985415  5.713624
474   1  1 11.420886 19.979538  8.572188
475   1  1 11.421186 20.024828 11.418724
476   1  1 11.420206 19.979943 14.268117
477   1  1 11.419014 19.985545 17.128224
478   1  1 11.419261 19.984911 19.986424
479   1  1 11.462533 20.027778 22.883798
480   1  1 11.463235 20.027998 25.658239
481   1  1 11.422007 22.842968  0.003004
482   1  1 11.421971 22.840504  2.858268
483   1  1 11.419435 22.836962  5.715577
484   1  1 11.420369 22.839043  8.566243
485   1  1 11.420916 22.842409 11.418651
486   1  1 11.419468 22.839518 14.273919
487   1  1 11.418232 22.837720 17.126260
488   1  1 11.419062 22.842808 19.985713
489   1  1 11.462391 22.801155 22.883471
490   1  1 11.463190 22.800931 25.658276
491   1  1 11.424895 25.690979  0.000507
493   1  1 11.423001 25.694726  5.711808
498   1  1 11.421589 25.693092 19.989175
499   1  1 11.420166 25.697139 22.840857
500   1  1 11.420830 25.696769 25.700791
509   1  1 14.278191  0.000004 22.842774
510   1  1 14.278452 28.552553 25.699399
515   1  1 14.279393  2.856717 11.420583
524   1  1 14.278782  5.711681  8.565834
525   1  1 14.277910  5.711437 11.420601
526   1  1 14.277980  5.711380 14.275323
533   1  1 14.279021  8.567544  5.713078
534   1  1 14.278083  8.567176  8.565890
535   1  1 14.274220  8.567270 11.420382
536   1  1 14.277185  8.567448 14.274893
537   1  1 14.278394  8.567708 17.128748
544   1  1 14.277909 11.423094  8.566466
545   1  1 14.277198 11.423461 11.419859
546   1  1 14.276953 11.423986 14.273680
552   1  1 14.279068 14.278871  2.856823
553   1  1 14.280522 14.276249  5.714082
554   1  1 14.265036 14.291951  8.580333
555   1  1 14.273562 14.283829 11.418506
556   1  1 14.263269 14.292099 14.259081
557   1  1 14.278434 14.276639 17.128129
559   1  1 14.278387 14.276359 22.843267
560   1  1 14.278836 14.277208 25.699662
561   1  1 14.279355 17.136079 28.552407
562   1  1 14.293747 17.147684  2.872073
563   1  1 14.283730 17.137512  5.712190
564   1  1 14.287020 17.146862  8.556342
565   1  1 14.317356 17.131691 11.419225
566   1  1 14.270832 17.131583 14.269005
567   1  1 14.276274 17.131871 17.130503
568   1  1 14.277139 17.134495 19.990040
569   1  1 14.279931 17.131584 22.841562
570   1  1 14.280704 17.131961 25.700927
571   1  1 14.280678 19.985107  0.002482
572   1  1 14.283864 19.986333  2.863818
573   1  1 14.236957 19.985835  5.712820
574   1  1 14.267599 19.970343  8.575071
575   1  1 14.270859 19.979830 11.419878
576   1  1 14.260933 19.970684 14.259729
577   1  1 14.275893 19.985583 17.129451
578   1  1 14.278393 19.984829 19.986492
579   1  1 14.236906 20.027790 22.883898
580   1  1 14.237861 20.027692 25.658496
581   1  1 14.280242 22.842507  0.002757
582   1  1 14.292590 22.825545  2.873397
583   1  1 14.281963 22.833383  5.713368
584   1  1 14.290969 22.825092  8.551195
585   1  1 14.276229 22.840122 11.419590
586   1  1 14.275670 22.840428 14.274621
587   1  1 14.275964 22.839777 17.128505
588   1  1 14.278112 22.842986 19.985945
589   1  1 14.236605 22.800844 22.883763
590   1  1 14.237428 22.800867 25.658387
591   1  1 14.277987 25.691524 28.553200
592   1  1 14.277497 25.694772  2.857245
593   1  1 14.277349 25.695877  5.711490
594   1  1 14.277417 25.696170  8.564983
598   1  1 14.276506 25.693157 19.989343
599   1  1 14.279260 25.697077 22.841094
600   1  1 14.279874 25.696614 25.701069
611   1  1 17.134971  2.856194  0.000924
614   1  1 17.134864  2.856549  8.565677
615   1  1 17.133873  2.855446 11.420606
616   1  1 17.133677  2.855069 14.275134
621   1  1 17.133827  5.711380  0.000769
622   1  1 17.134145  5.711548  2.855174
623   1  1 17.135959  5.711958  5.709890
624   1  1 17.149314  5.726583  8.580822
625   1  1 17.139079  5.717143 11.420731
626   1  1 17.147911  5.726171 14.260271
627   1  1 17.133249  5.711247 17.130283
630   1  1 17.134432  5.711288 25.699098
631   1  1 17.130646  8.567272  0.001160
632   1  1 17.133567  8.567533  2.855867
633   1  1 17.135288  8.567453  5.710212
634   1  1 17.139527  8.567281  8.571687
635   1  1 17.093148  8.567557 11.420465
636   1  1 17.138060  8.567604 14.268993
637   1  1 17.132325  8.567335 17.129946
639   1  1 17.135032  8.566648 22.844579
640   1  1 17.134205  8.566974 25.699348
641   1  1 17.134532 11.423745  0.002134
642   1  1 17.134181 11.423694  2.856378
643   1  1 17.133815 11.424495  5.712471
644   1  1 17.148018 11.409263  8.580889
645   1  1 17.137862 11.419108 11.419649
646   1  1 17.146533 11.409968 14.258706
647   1  1 17.130289 11.424579 17.127440
650   1  1 17.134909 11.422894 25.700440
651   1  1 17.135633 14.280015  0.003992
652   1  1 17.135828 14.278927  2.857249
653   1  1 17.135970 14.272654  5.711823
654   1  1 17.134842 14.278235  8.565033
655   1  1 17.134255 14.279918 11.417554
656   1  1 17.132909 14.277849 14.273694
661   1  1 17.130298 17.140270 28.551124
662   1  1 17.134391 17.140121  2.863590
663   1  1 17.133287 17.093511  5.712791
664   1  1 17.133679 17.138803  8.558684
665   1  1 17.136370 17.132579 11.419101
666   1  1 17.132560 17.132175 14.274814
667   1  1 17.130550 17.132340 17.130105
668   1  1 17.126585 17.137297 19.992736
669   1  1 17.130630 17.135024 22.843692
670   1  1 17.131957 17.136138 25.699692
671   1  1 17.132559 19.987776 28.550623
672   1  1 17.134067 19.987792  2.818559
674   1  1 17.131759 19.986446  8.604632
675   1  1 17.131937 19.985975 11.422790
676   1  1 17.131730 19.986155 14.275211
678   1  1 17.128973 19.987087 19.990093
679   1  1 17.133583 19.985518 22.841505
680   1  1 17.135382 19.985717 25.701740
681   1  1 17.131618 22.840263 28.553647
682   1  1 17.132708 22.834501  2.863481
683   1  1 17.130281 22.878168  5.713227
684   1  1 17.130350 22.834012  8.559765
685   1  1 17.130364 22.839246 11.419626
686   1  1 17.130876 22.840067 14.274860
688   1  1 17.128678 22.841352 19.989858
689   1  1 17.133215 22.843693 22.841523
690   1  1 17.134776 22.843326 25.701913
691   1  1 17.128134 25.687723 28.551586
692   1  1 17.132334 25.694616  2.856639
693   1  1 17.132487 25.699194  5.710962
694   1  1 17.132336 25.696176  8.564589
698   1  1 17.126405 25.690970 19.992717
699   1  1 17.129754 25.693801 22.843245
700   1  1 17.130723 25.692732 25.699836
701   1  1 19.987527 28.549839  0.002668
710   1  1 19.987045 28.550618 25.699226
711   1  1 19.989745  2.853715  0.001518
712   1  1 19.989963  2.854540  2.854906
714   1  1 19.990124  2.855740  8.566551
715   1  1 19.989608  2.852055 11.421167
716   1  1 19.989370  2.854209 14.274274
717   1  1 19.988549  2.856317 17.129337
720   1  1 19.989304  2.854679 25.699472
721   1  1 19.995166  5.716205  0.000737
722   1  1 20.004358  5.725629  2.839785
723   1  1 19.989900  5.711238  5.709619
724   1  1 19.989155  5.717158  8.572862
725   1  1 19.988501  5.671706 11.421492
726   1  1 19.987266  5.716582 14.269240
727   1  1 19.987378  5.710703 17.130622
729   1  1 19.990401  5.710737 22.843296
730   1  1 20.004607  5.725414 25.714069
731   1  1 19.949245  8.567504  0.001193
732   1  1 19.994169  8.567575  2.849540
733   1  1 19.988582  8.567140  5.707688
734   1  1 19.988328  8.566962  8.527732
736   1  1 19.986454  8.567450 14.314283
737   1  1 19.986537  8.567045 17.133585
739   1  1 19.989527  8.566747 22.842940
740   1  1 19.994848  8.567312 25.705305
741   1  1 19.995019 11.419301  0.002975
742   1  1 20.004086 11.409561  2.841696
743   1  1 19.989288 11.422854  5.711166
744   1  1 19.989263 11.416794  8.572504
745   1  1 19.988631 11.462348 11.420109
746   1  1 19.987445 11.416781 14.268668
747   1  1 19.987050 11.421827 17.129751
749   1  1 19.989167 11.421752 22.843319
750   1  1 20.004207 11.409007 25.715867
751   1  1 19.991862 14.285635  0.007816
752   1  1 19.991721 14.284088  2.859211
753   1  1 19.992038 14.279356  5.711783
754   1  1 19.992241 14.279970  8.564726
755   1  1 19.992052 14.284837 11.415058
756   1  1 19.988564 14.277070 14.274490
760   1  1 19.989174 14.279335 25.701224
761   1  1 19.993114 17.138531  0.008082
762   1  1 19.977930 17.152909  2.875735
763   1  1 19.987271 17.142870  5.712581
764   1  1 19.976963 17.150833  8.547196
765   1  1 19.989825 17.133288 11.417744
771   1  1 19.994498 19.989472  0.007801
772   1  1 19.989318 19.991818  2.868071
773   1  1 20.029073 19.990503  5.710721
774   1  1 19.982931 19.987539  8.558892
775   1  1 19.988350 19.987124 11.418420
779   1  1 19.989353 19.987794 22.842904
780   1  1 19.991496 19.988222 25.700911
781   1  1 19.993234 22.840353  0.007312
782   1  1 19.978557 22.824935  2.875143
783   1  1 19.983284 22.836410  5.709482
784   1  1 19.969876 22.827170  8.550957
785   1  1 19.987121 22.840650 11.418092
789   1  1 19.989209 22.843161 22.843326
790   1  1 19.990832 22.842224 25.700968
791   1  1 19.991048 25.689934  0.007826
792   1  1 19.989284 25.693950  2.856407
793   1  1 19.988347 25.696131  5.709603
794   1  1 19.987146 25.695762  8.564581
800   1  1 19.987911 25.695058 25.700279
801   1  1 22.842363 28.552281  0.004068
802   1  1 22.850983 28.547051  2.858505
803   1  1 22.845612 28.550951  5.710853
804   1  1 22.845706 28.550864  8.566667
805   1  1 22.850155 28.545011 11.414119
809   1  1 22.845962  0.000278 22.845481
810   1  1 22.842049 28.553188 25.697486
811   1  1 22.845957  2.847904  0.001219
812   1  1 22.848850  2.849342  2.849699
814   1  1 22.843196  2.856730  8.566932
815   1  1 22.849128  2.860501 11.426300
816   1  1 22.845721  2.857200 14.274171
817   1  1 22.845547  2.859164 17.128556
818   1  1 22.849190  2.860991 19.981468
819   1  1 22.849285  2.851194 22.849814
820   1  1 22.845785  2.851820 25.699644
821   1  1 22.843131  5.670960  0.000653
822   1  1 22.843253  5.716607  2.848609
823   1  1 22.842297  5.711655  5.710143
824   1  1 22.827703  5.726642  8.582007
825   1  1 22.839811  5.717340 11.424500
826   1  1 22.827132  5.724169 14.258513
827   1  1 22.841875  5.709082 17.131588
828   1  1 22.846284  5.710260 19.984093
829   1  1 22.843859  5.710911 22.843538
830   1  1 22.843163  5.716524 25.705108
831   1  1 27.125207 27.119366 12.842705
832   1  1 22.842624  8.567431  2.894888
833   1  1 22.842090  8.566759  5.714040
834   1  1 22.836824  8.566420  8.573281
835   1  1 22.885465  8.566419 11.424699
836   1  1 22.835869  8.568660 14.267889
837   1  1 22.841621  8.568237 17.131868
838   1  1 22.845959  8.566199 19.982960
839   1  1 22.843165  8.566932 22.839807
840   1  1 22.842605  8.567547 25.660167
841   1  1 22.842703 11.465031  0.003521
842   1  1 22.842679 11.418180  2.850879
843   1  1 22.842194 11.421925  5.711616
844   1  1 22.827630 11.406259  8.582157
845   1  1 22.841642 11.410567 11.426508
846   1  1 22.829621 11.404157 14.259845
847   1  1 22.844798 11.418313 17.129469
848   1  1 22.848411 11.415845 19.980194
849   1  1 22.843047 11.421404 22.842868
850   1  1 22.842487 11.418328 25.706821
851   1  1 22.842827 14.288947  0.009377
852   1  1 22.843944 14.283296  2.860001
853   1  1 22.844366 14.279314  5.712922
854   1  1 22.843101 14.279466  8.564711
855   1  1 22.839617 14.279530 11.417491
856   1  1 22.841744 14.276677 14.274529
857   1  1 22.842076 14.275176 17.129146
860   1  1 22.842670 14.279142 25.701602
861   1  1 22.844963 17.137905  0.009209
862   1  1 22.866233 17.156689  2.881671
863   1  1 22.862465 17.151528  5.720830
864   1  1 22.867701 17.157963  8.542105
865   1  1 22.840567 17.132626 11.419017
871   1  1 22.848418 19.991033  0.009810
872   1  1 22.874544 20.006369  2.887455
873   1  1 22.815006 19.994055  5.714405
874   1  1 22.849047 19.984404  8.566182
875   1  1 22.845002 19.992952 11.415135
881   1  1 22.849573 22.842895  0.008369
882   1  1 22.880872 22.825908  2.883633
883   1  1 22.852107 22.843835  5.702899
884   1  1 22.843405 22.834132  8.563041
885   1  1 22.842644 22.844625 11.415919
889   1  1 22.849206 22.848541 22.848663
890   1  1 22.846775 22.845196 25.700036
891   1  1 22.840618 25.691369  0.008054
892   1  1 22.848211 25.696852  2.857078
893   1  1 22.840832 25.700580  5.709685
894   1  1 22.838127 25.699968  8.571018
895   1  1 22.847907 25.689192 11.409244
899   1  1 22.845983 25.698002 22.845749
900   1  1 22.842160 25.694788 25.697961
901   1  1 25.738275 28.511143 28.513688
902   1  1 25.696012 28.552311  2.859380
903   1  1 25.693946  0.003055  5.709087
904   1  1 25.694952  0.001545  8.567781
905   1  1 25.698451 28.547328 11.415589
906   1  1 25.697283 28.549116 14.272244
907   1  1 25.696835 28.552329 17.130086
908   1  1 25.697182  0.001398 19.985571
909   1  1 25.695477  0.002871 22.841798
910   1  1 25.737849 28.511409 25.739743
911   1  1 25.695215  2.855107  0.003146
912   1  1 25.696753  2.853072  2.852500
913   1  1 25.694093  2.860158  5.710480
914   1  1 25.695450  2.858557  8.566669
915   1  1 25.696456  2.858944 11.423373
916   1  1 25.694417  2.854493 14.271848
917   1  1 25.693324  2.856664 17.129344
918   1  1 25.697192  2.858866 19.983700
919   1  1 25.697150  2.854271 22.847076
920   1  1 25.694988  2.855956 25.697673
921   1  1 25.691020  5.717750  0.001155
922   1  1 25.681802  5.726369  2.840015
923   1  1 25.695137  5.711749  5.710365
924   1  1 25.696525  5.711691  8.566005
925   1  1 25.695571  5.709785 11.421018
926   1  1 25.737344  5.751829 14.315996
927   1  1 25.736752  5.751725 17.088014
928   1  1 25.695598  5.708642 19.986939
929   1  1 25.696695  5.711061 22.844504
930   1  1 25.681676  5.726905 25.714210
931   1  1 25.736321  8.567762  0.001376
932   1  1 25.691183  8.567536  2.850342
933   1  1 25.695505  8.566922  5.711855
934   1  1 25.697196  8.566951  8.566307
935   1  1 25.698984  8.568655 11.421157
936   1  1 25.737772  8.526250 14.316115
937   1  1 25.737145  8.525696 17.087848
938   1  1 25.696003  8.568364 19.985813
939   1  1 25.696631  8.567276 22.843871
940   1  1 25.690811  8.567698 25.705553
941   1  1 25.690796 11.418288  0.002818
942   1  1 25.681968 11.408028  2.842288
943   1  1 25.695408 11.421104  5.712519
944   1  1 25.696793 11.420903  8.567696
945   1  1 25.697087 11.418631 11.424317
946   1  1 25.694930 11.422582 14.272777
947   1  1 25.694653 11.422165 17.130029
948   1  1 25.697885 11.418468 19.982167
949   1  1 25.696773 11.421207 22.843179
950   1  1 25.681173 11.408439 25.715805
951   1  1 25.696962 14.281763  0.006379
952   1  1 25.698487 14.280252  2.860787
953   1  1 25.695576 14.270739  5.713447
954   1  1 25.694966 14.273904  8.567650
955   1  1 25.695063 14.275906 11.420019
956   1  1 25.695136 14.276572 14.274177
957   1  1 25.695154 14.275258 17.127933
960   1  1 25.696075 14.277325 25.700734
961   1  1 25.699234 17.136749  0.006544
962   1  1 25.708559 17.151422  2.877758
963   1  1 25.701104 17.092199  5.714880
964   1  1 25.691731 17.134681  8.566976
965   1  1 25.697906 17.131821 11.420548
971   1  1 25.698237 19.988370  0.001593
972   1  1 25.703498 19.993658  2.825600
973   1  1 27.124920 27.114739  9.982091
974   1  1 25.692720 19.985271  8.643103
975   1  1 25.691720 19.984128 11.426989
980   1  1 25.697298 19.986865 25.698694
981   1  1 25.695380 22.842578  0.004225
982   1  1 25.691857 22.847016  2.862364
983   1  1 25.754411 22.995670  5.766468
984   1  1 25.760873 22.827966  8.478727
985   1  1 25.693009 22.840658 11.417923
986   1  1 25.697449 22.841657 14.275372
989   1  1 25.698122 22.845789 22.845727
990   1  1 25.695700 22.842493 25.697099
991   1  1 25.737751 25.737780 28.514451
992   1  1 25.695886 25.699907  2.856281
993   1  1 25.735819 25.666423  5.749964
994   1  1 25.739705 25.653177  8.520491
995   1  1 25.699185 25.689914 11.411660
996   1  1 25.698441 25.694977 14.273661
998   1  1 25.697912 25.697294 19.985779
999   1  1 25.695883 25.696394 22.842023
1000  1  1 25.737956 25.738660 25.739521
1001  1  1  1.410569  1.410969  1.414500
1002  1  1  1.424758  1.426818  4.283067
1003  1  1  1.424603  1.428075  7.137571
1004  1  1  1.424680  1.427035  9.992950
1005  1  1  1.425291  1.424298 12.845496
1006  1  1  1.425561  1.426497 15.702132
1007  1  1  1.425718  1.428339 18.558116
1008  1  1  1.424497  1.429703 21.414570
1009  1  1  1.410342  1.413179 24.285751
1010  1  1  1.419887  1.421567 27.126502
1011  1  1  1.425683  4.282192  1.427838
1014  1  1  1.426026  4.283522  9.993793
1015  1  1  1.411397  4.297259 12.863247
1016  1  1  1.420501  4.288038 15.702832
1017  1  1  1.410772  4.297855 18.543678
1018  1  1  1.424568  4.282366 21.416086
1019  1  1  1.425285  4.282720 24.271833
1020  1  1  1.425810  4.282328 27.126720
1021  1  1  1.427755  7.139073  1.428890
1024  1  1  1.426971  7.138750  9.993735
1025  1  1  1.421535  7.138572 12.854914
1026  1  1  1.466717  7.138484 15.703537
1027  1  1  1.420565  7.138457 18.552624
1028  1  1  1.425257  7.138721 21.414662
1030  1  1  1.427647  7.138755 27.126230
1031  1  1  1.427860  9.995265  1.429275
1034  1  1  1.427585  9.994105  9.994376
1035  1  1  1.413103  9.979653 12.863996
1036  1  1  1.422387  9.989281 15.702659
1037  1  1  1.412160  9.979839 18.542191
1038  1  1  1.425661  9.993742 21.413860
1040  1  1  1.427556  9.995175 27.126499
1043  1  1  1.432836 12.854526  7.144300
1044  1  1  1.430238 12.850342  9.995544
1045  1  1  1.430322 12.852605 12.848256
1046  1  1  1.433480 12.855847 15.696753
1047  1  1  1.427466 12.849512 18.556793
1051  1  1  1.417436 15.712697  1.438044
1052  1  1  1.425996 15.705440  4.282915
1053  1  1  1.428059 15.703726  7.140975
1054  1  1  1.422324 15.704711  9.987503
1055  1  1  1.427162 15.704240 12.848211
1056  1  1  1.430923 15.705864 15.699220
1061  1  1  1.425229 18.558813  1.432792
1062  1  1  1.434921 18.554713  4.279588
1063  1  1  1.431281 18.554342  7.150094
1064  1  1  1.404651 18.578356  9.968823
1065  1  1  1.424479 18.564996 12.845261
1066  1  1  1.430470 18.560208 15.699031
1071  1  1  1.425922 21.415495  1.429175
1072  1  1  1.418893 21.437621  4.288837
1073  1  1  1.460720 21.408956  7.135861
1074  1  1  1.394599 21.424133  9.956550
1075  1  1  1.425791 21.412895 12.841188
1076  1  1  1.433288 21.408644 15.696235
1079  1  1  1.426142 21.415726 24.271060
1080  1  1  1.426129 21.415530 27.126199
1081  1  1  1.409500 24.283573  1.415295
1082  1  1  1.405677 24.256023  4.301157
1083  1  1  1.444108 24.248602  7.137946
1084  1  1  1.390379 24.242689  9.955065
1085  1  1  1.422760 24.265307 12.840359
1088  1  1  1.426689 24.270493 21.415019
1089  1  1  1.411414 24.286071 24.285490
1090  1  1  1.420867 24.277218 27.125398
1091  1  1  1.421486 27.125082  1.422951
1092  1  1  1.409590 27.107888  4.301024
1093  1  1  1.416332 27.115703  7.138432
1094  1  1  1.405211 27.102977  9.971017
1095  1  1  1.424979 27.119212 12.842436
1098  1  1  1.426051 27.125877 21.414505
1099  1  1  1.420309 27.126134 24.276011
1100  1  1  1.465992 27.125544 27.126010
1101  1  1  4.278693  1.422884  1.430458
1109  1  1  4.280952  1.426579 24.270616
1110  1  1  4.281444  1.425530 27.126621
1115  1  1  4.280655  4.282113 12.848466
1116  1  1  4.281266  4.282110 15.703367
1117  1  1  4.280561  4.282526 18.559072
1125  1  1  4.282126  7.138252 12.849116
1126  1  1  4.285338  7.138325 15.703751
1127  1  1  4.281532  7.138436 18.558534
1134  1  1  4.281553  9.994124  9.994933
1135  1  1  4.282666  9.994180 12.849266
1136  1  1  4.283275  9.995418 15.702896
1137  1  1  4.282661  9.995618 18.556574
1143  1  1  4.282870 12.853635  7.142959
1144  1  1  4.278631 12.847929  9.994582
1145  1  1  4.279302 12.849747 12.849368
1146  1  1  4.282446 12.853264 15.699406
1152  1  1  4.283284 15.704662  4.284037
1153  1  1  4.280827 15.702921  7.140031
1154  1  1  4.321641 15.746874 10.035795
1155  1  1  4.319936 15.750100 12.802469
1156  1  1  4.280996 15.705080 15.701758
1157  1  1  4.283207 15.705123 18.558809
1162  1  1  4.284635 18.558713  4.281508
1163  1  1  4.280806 18.561095  7.139591
1164  1  1  4.317782 18.522305 10.031482
1165  1  1  4.316578 18.523232 12.800442
1166  1  1  4.280381 18.562732 15.701127
1167  1  1  4.283120 18.560317 18.559214