Generated by pymatgen.io.lammps.data.LammpsData

1990  atoms

   1  atom types

0.000000 28.553120  xlo xhi
0.000000 28.553120  ylo yhi
0.000000 28.553120  zlo zhi
0.000000 0.000000 0.000000  xy xz yz

Masses

1  55.847

Atoms

1     0  1 28.511430 28.511191 28.514092
2     0  1  0.000433 28.550689  2.860035
3     0  1 28.552215 28.552755  5.709536
4     0  1 28.551754 28.552079  8.566487
5     0  1 28.549684 28.546363 11.414249
6     0  1 28.551193 28.548958 14.271916
7     0  1 28.552071 28.551658 17.129672
8     0  1 28.551975  0.001282 19.985115
9     0  1  0.000499  0.003298 22.841283
10    0  1 28.511392 28.512663 25.738778
11    0  1 28.552387  2.855587  0.003625
12    0  1 28.549784  2.852590  2.852940
13    0  1 28.548811  2.857786  5.707588
14    0  1 28.550850  2.856290  8.565404
15    0  1 28.550914  2.856850 11.422423
16    0  1  0.000140  2.852727 14.271765
17    0  1  0.000189  2.854284 17.131107
18    0  1 28.551021  2.858593 19.983624
19    0  1 28.549338  2.855083 22.847557
20    0  1 28.552474  2.856675 25.697499
21    0  1 28.552263  5.711686  0.001553
22    0  1 28.551232  5.711048  2.855174
23    0  1 28.550383  5.710862  5.708080
24    0  1 28.552425  5.710804  8.564495
25    0  1  0.001244  5.708816 11.420437
26    0  1 28.511979  5.750768 14.316215
27    0  1 28.511420  5.750966 17.089393
28    0  1  0.000240  5.708538 19.987220
29    0  1 28.550754  5.710765 22.845137
30    0  1 28.551962  5.711750 25.699466
31    0  1  0.002310  8.567354  0.001571
32    0  1 28.552111  8.567383  2.856353
33    0  1 28.551366  8.567113  5.709560
34    0  1  0.000247  8.566913  8.565049
35    0  1  0.002340  8.568394 11.420908
36    0  1 28.512736  8.526099 14.316670
37    0  1 28.512323  8.526180 17.089316
38    0  1  0.000835  8.568416 19.986184
39    0  1 28.550991  8.567087 22.844815
40    0  1 28.552042  8.567271 25.699770
41    0  1 28.551814 11.423005  0.002454
42    0  1 28.552038 11.422344  2.857019
43    0  1  0.000633 11.423720  5.712387
44    0  1  0.001505 11.422342  8.567117
45    0  1  0.001375 11.420170 11.424431
46    0  1  0.003449 11.424258 14.273369
47    0  1  0.003883 11.424718 17.129350
48    0  1 28.552387 11.418767 19.982453
49    0  1 28.550690 11.421214 22.843870
50    0  1 28.551428 11.422596 25.700434
51    0  1 28.550093 14.279214  0.005133
52    0  1 28.549918 14.278050  2.858996
53    0  1 28.552733 14.273682  5.710214
54    0  1  0.001344 14.272988  8.568855
55    0  1 28.552522 14.277114 11.420596
56    0  1  0.000674 14.278840 14.273855
57    0  1  0.001405 14.277822 17.128550
58    0  1 28.552343 14.275605 19.985647
59    0  1 28.549875 14.273341 22.844287
60    0  1 28.550354 14.276146 25.700204
61    0  1 28.550916 17.134398  0.004615
62    0  1 28.530892 17.157721  2.883215
63    0  1  0.004281 17.133223  5.702565
64    0  1 28.552214 17.128948  8.565420
65    0  1 28.551796 17.132799 11.418073
66    0  1  0.000090 17.132765 14.273885
67    0  1  0.001230 17.131951 17.129198
68    0  1 28.552678 17.130995 19.986424
69    0  1 28.552135 17.130794 22.842691
70    0  1 28.552003 17.131581 25.698860
71    0  1  0.001039 19.986315  0.000934
72    0  1  0.004181 19.980063  2.859941
73    0  1  0.063612 20.002665  5.723992
74    0  1 28.463983 20.048118  8.475312
75    0  1 28.551358 19.987867 11.413668
76    0  1 28.552937 19.986593 14.274703
77    0  1  0.001439 19.986378 17.129748
78    0  1  0.000139 19.987373 19.987259
79    0  1 28.552759 19.987456 22.842803
80    0  1  0.000060 19.986712 25.697811
81    0  1  0.004376 22.844275 28.551892
82    0  1  0.006259 22.844586  2.847775
83    0  1 28.439256 22.792507  5.799223
84    0  1 28.475142 22.834687  8.485947
85    0  1  0.005417 22.840273 11.418811
86    0  1  0.001606 22.839505 14.275191
87    0  1  0.002455 22.839072 17.128605
88    0  1  0.000371 22.842161 19.986645
89    0  1 28.552815 22.845930 22.845335
90    0  1  0.001857 22.843002 25.695555
91    0  1 28.511992 25.738838 28.512180
92    0  1  0.006574 25.696768  2.855391
93    0  1 28.504637 25.646788  5.756719
94    0  1 28.504217 25.645139  8.517099
95    0  1 28.548612 25.688903 11.411406
96    0  1 28.551769 25.694218 14.273325
97    0  1 28.553062 25.695994 17.129902
98    0  1  0.000064 25.697152 19.985375
99    0  1  0.001340 25.696665 22.841420
100   0  1 28.511796 25.739390 25.738129
101   0  1  2.853979 28.553000  0.003733
102   0  1  2.842913 28.543520  2.860665
103   0  1  2.847642 28.546627  5.710789
104   0  1  2.846744 28.546849  8.563844
105   0  1  2.843867 28.543255 11.411499
106   0  1  2.851303 28.549338 14.272137
107   0  1  2.853444 28.551865 17.129870
108   0  1  2.853026  0.000397 19.986270
109   0  1  2.850767  0.000776 22.844436
110   0  1  2.854581  0.001821 25.696177
111   0  1  2.850675  2.850214  0.001661
112   0  1  2.846840  2.847155  2.850582
113   0  1  2.851829  2.853035  5.709350
114   0  1  2.851459  2.853939  8.565111
115   0  1  2.846211  2.858457 11.424791
116   0  1  2.849942  2.855382 14.273953
117   0  1  2.850503  2.856852 17.129901
118   0  1  2.847026  2.860350 19.981389
119   0  1  2.847171  2.850050 22.847909
120   0  1  2.850941  2.851548 25.698930
121   0  1  2.854341  5.709706  0.001167
122   0  1  2.853995  5.709680  2.855396
123   0  1  2.853762  5.709713  5.709343
124   0  1  2.853441  5.710219  8.565276
125   0  1  2.851007  5.710121 11.423586
126   0  1  2.854678  5.707840 14.273691
127   0  1  2.854449  5.708080 17.132514
128   0  1  2.850243  5.710187 19.984138
129   0  1  2.852793  5.710243 22.842750
130   0  1  2.854161  5.709863 25.698814
131   0  1  2.855437  8.566955  0.001343
132   0  1  2.855659  8.567501  2.856784
133   0  1  2.855248  8.567083  5.710783
134   0  1  2.854675  8.566228  8.565822
135   0  1  2.852239  8.565996 11.424121
136   0  1  2.855803  8.568155 14.274177
137   0  1  2.855484  8.568593 17.132291
138   0  1  2.851235  8.566709 19.982837
139   0  1  2.853653  8.566557 22.842107
140   0  1  2.854762  8.566744 25.698697
141   0  1  2.854652 11.423527  0.001938
142   0  1  2.855860 11.423311  2.856763
143   0  1  2.856116 11.424224  5.712668
144   0  1  2.855448 11.422198  8.567226
145   0  1  2.850310 11.416566 11.427124
146   0  1  2.853304 11.420508 14.275184
147   0  1  2.852954 11.421253 17.128396
148   0  1  2.848980 11.416378 19.979895
149   0  1  2.853710 11.421393 22.842002
150   0  1  2.854553 11.422947 25.699255
151   0  1  2.851187 14.281211  0.004906
152   0  1  2.854538 14.278751  2.855827
153   0  1  2.855359 14.278280  5.711704
154   0  1  2.869592 14.292192  8.582118
155   0  1  2.859413 14.284189 11.420133
156   0  1  2.870448 14.293957 14.258871
157   0  1  2.855940 14.278152 17.129269
158   0  1  2.854444 14.276133 19.985873
159   0  1  2.853966 14.275638 22.842187
160   0  1  2.853641 14.277513 25.699414
161   0  1  2.853532 17.131836  0.002507
162   0  1  2.853775 17.134398  2.858419
163   0  1  2.854699 17.133560  5.713141
164   0  1  2.858277 17.132338  8.574105
165   0  1  2.802501 17.143184 11.408756
166   0  1  2.859519 17.134527 14.266416
167   0  1  2.855889 17.132633 17.129983
168   0  1  2.854839 17.131551 19.986985
169   0  1  2.854289 17.131046 22.842619
170   0  1  2.854073 17.131272 25.698590
171   0  1  2.854035 19.987534  0.001188
172   0  1  2.850492 19.993627  2.860533
173   0  1  2.861051 19.985707  5.706903
174   0  1  2.863261 19.973056  8.578826
175   0  1  2.848500 19.985717 11.407641
176   0  1  2.868765 19.971822 14.257342
177   0  1  2.856081 19.986211 17.129809
178   0  1  2.855116 19.987521 19.987393
179   0  1  2.854140 19.987641 22.843074
180   0  1  2.854324 19.987379 25.698169
181   0  1  2.851623 22.846083  0.000190
182   0  1  2.846807 22.851447  2.851778
183   0  1  2.853154 22.838217  5.705942
184   0  1  2.854640 22.841347  8.570309
185   0  1  2.844701 22.837325 11.409115
186   0  1  2.853915 22.839534 14.271897
187   0  1  2.855960 22.839485 17.128499
188   0  1  2.855009 22.842277 19.986620
189   0  1  2.848983 22.848684 22.848079
190   0  1  2.851825 22.846145 25.697823
191   0  1  2.854265 25.695459  0.002907
192   0  1  2.840707 25.688768  2.863992
193   0  1  2.847733 25.691108  5.709684
194   0  1  2.845864 25.689556  8.561387
195   0  1  2.842803 25.688731 11.408340
196   0  1  2.852895 25.694810 14.272427
197   0  1  2.855040 25.695883 17.129797
198   0  1  2.854766 25.696955 19.986052
199   0  1  2.851653 25.698514 22.844740
200   0  1  2.855286 25.696918 25.695464
201   0  1  5.709323 28.549826  0.002854
202   0  1  5.707831 28.548194  2.856218
203   0  1  5.706141 28.549369  5.710115
204   0  1  5.705172 28.550418  8.565032
205   0  1  5.705057 28.549849 11.417900
206   0  1  5.705967 28.550397 14.272765
207   0  1  5.708812 28.551259 17.130920
208   0  1  5.708813 28.552271 19.986946
209   0  1  5.709358 28.552838 22.841525
210   0  1  5.711018 28.551981 25.697971
211   0  1  5.708140  2.852047  0.002140
212   0  1  5.707666  2.851595  2.855655
213   0  1  5.706808  2.852013  5.709820
214   0  1  5.706270  2.852592  8.565462
215   0  1  5.706416  2.852748 11.419901
216   0  1  5.706959  2.852258 14.273940
217   0  1  5.708245  2.853665 17.130463
218   0  1  5.707862  2.854799 19.986632
219   0  1  5.708231  2.854412 22.842147
220   0  1  5.709139  2.853739 25.698576
221   0  1  5.708983  5.709150  0.001199
222   0  1  5.708936  5.709151  2.855877
223   0  1  5.708221  5.708737  5.709827
224   0  1  5.708004  5.709325  8.565885
225   0  1  5.708527  5.709327 11.420711
226   0  1  5.709728  5.708976 14.275223
227   0  1  5.709695  5.709369 17.131167
228   0  1  5.707904  5.709687 19.986881
229   0  1  5.707947  5.709929 22.841720
230   0  1  5.708812  5.709395 25.698391
231   0  1  5.710315  8.566562  0.001097
232   0  1  5.710583  8.567286  2.856809
233   0  1  5.710349  8.567111  5.711571
234   0  1  5.709406  8.566149  8.566459
235   0  1  5.709827  8.565717 11.421154
236   0  1  5.710953  8.566520 14.275588
237   0  1  5.710817  8.567194 17.130583
238   0  1  5.709202  8.566774 19.985412
239   0  1  5.708820  8.566317 22.841471
240   0  1  5.709701  8.566324 25.698295
241   0  1  5.710631 11.423083  0.000977
242   0  1  5.711316 11.423835  2.856736
243   0  1  5.712805 11.426904  5.715303
244   0  1  5.710890 11.424171  8.567769
245   0  1  5.711105 11.420590 11.421494
246   0  1  5.711209 11.424580 14.274696
247   0  1  5.712243 11.426405 17.126601
248   0  1  5.709813 11.422211 19.985018
249   0  1  5.709365 11.421839 22.841727
250   0  1  5.709873 11.422788 25.698795
251   0  1  5.710777 14.279208  0.001065
252   0  1  5.711694 14.279296  2.855338
253   0  1  5.711582 14.279028  5.713520
254   0  1  5.709071 14.283931  8.574186
255   0  1  5.709944 14.239151 11.420978
256   0  1  5.708544 14.285778 14.267155
257   0  1  5.711572 14.279314 17.129020
258   0  1  5.710485 14.277265 19.986419
259   0  1  5.710081 14.276697 22.841882
260   0  1  5.710691 14.278012 25.698554
261   0  1  5.710222 17.133944  0.000631
262   0  1  5.711619 17.133056  2.854487
263   0  1  5.711475 17.132777  5.710131
264   0  1  5.709907 17.132770  8.528414
265   0  1 27.124919 27.126178 24.230344
266   0  1  5.709279 17.133876 14.311003
267   0  1  5.712035 17.133001 17.132276
268   0  1  5.710981 17.132723 19.987807
269   0  1  5.710494 17.132224 22.842933
270   0  1  5.710364 17.132582 25.698414
271   0  1  5.709353 19.988676  0.000439
272   0  1  5.710641 19.988755  2.854499
273   0  1  5.711508 19.986868  5.711186
274   0  1  5.710261 19.980434  8.571623
275   0  1  5.708661 20.025476 11.418006
276   0  1  5.708411 19.980571 14.265873
277   0  1  5.711825 19.986344 17.128976
278   0  1  5.710146 19.988044 19.987991
279   0  1  5.709106 19.987728 22.842919
280   0  1  5.708864 19.987880 25.698728
281   0  1  5.709542 22.843292  0.000639
282   0  1  5.710452 22.842925  2.854824
283   0  1  5.712909 22.837749  5.712792
284   0  1  5.711721 22.839547  8.566348
285   0  1  5.709015 22.842008 11.417835
286   0  1  5.708947 22.839130 14.271389
287   0  1  5.712565 22.837548 17.126655
288   0  1  5.710426 22.841630 19.986846
289   0  1  5.709274 22.843365 22.842817
290   0  1  5.709350 22.843418 25.698564
291   0  1  5.710475 25.696713  0.001369
292   0  1  5.708817 25.695107  2.856889
293   0  1  5.708552 25.695049  5.710443
294   0  1  5.707957 25.695319  8.564203
295   0  1  5.706966 25.695787 11.417915
296   0  1  5.707132 25.695454 14.272263
297   0  1  5.710035 25.695610 17.129987
298   0  1  5.710037 25.696165 19.986828
299   0  1  5.710256 25.697624 22.842292
300   0  1  5.711281 25.697453 25.697681
301   0  1  8.566734 28.550650  0.001007
302   0  1  8.566156 28.550278  2.855752
303   0  1  8.565140 28.551244  5.710617
304   0  1  8.564562 28.551784  8.565055
305   0  1  8.564454 28.551618 11.419529
306   0  1  8.564447 28.551380 14.274588
307   0  1  8.564695 28.551189 17.131140
308   0  1  8.565746 28.551696 19.986782
309   0  1  8.566139 28.552229 22.842051
310   0  1  8.566612 28.551727 25.698505
311   0  1  8.565223  2.853907  0.001324
312   0  1  8.565040  2.853508  2.856075
313   0  1  8.564274  2.853504  5.710543
314   0  1  8.563911  2.853651  8.565212
315   0  1  8.564143  2.853497 11.420033
316   0  1  8.564336  2.853268 14.275173
317   0  1  8.564638  2.853823 17.130825
318   0  1  8.565157  2.854754 19.986479
319   0  1  8.565324  2.855005 22.842151
320   0  1  8.565202  2.854529 25.698516
321   0  1  8.565073  5.710199  0.001240
322   0  1  8.565005  5.710121  2.856395
323   0  1  8.564455  5.709730  5.710860
324   0  1  8.564247  5.709459  8.565456
325   0  1  8.564615  5.709353 11.420423
326   0  1  8.564952  5.709395 14.275635
327   0  1  8.565059  5.709899 17.130934
328   0  1  8.565125  5.710564 19.986354
329   0  1  8.564976  5.710675 22.842019
330   0  1  8.564839  5.710260 25.698333
331   0  1  8.565648  8.566542  0.001264
332   0  1  8.565687  8.567370  2.857219
333   0  1  8.565226  8.567209  5.711875
334   0  1  8.564959  8.566010  8.565777
335   0  1  8.565269  8.565883 11.420643
336   0  1  8.565576  8.566211 14.275736
337   0  1  8.565504  8.567121 17.130336
338   0  1  8.565417  8.567083 19.985542
339   0  1  8.565159  8.566409 22.842008
340   0  1  8.565255  8.566245 25.698292
341   0  1  8.566614 11.422774  0.001142
342   0  1  8.566636 11.423787  2.857067
343   0  1  8.566031 11.426415  5.714734
344   0  1  8.565670 11.424299  8.567151
345   0  1  8.565756 11.423670 11.420667
346   0  1  8.565850 11.424712 14.274431
347   0  1  8.565547 11.426165 17.127356
348   0  1  8.565746 11.422679 19.985575
349   0  1  8.565693 11.421826 22.842321
350   0  1  8.566103 11.422361 25.698727
351   0  1  8.567626 14.278879  0.000351
352   0  1  8.567079 14.278914  2.855322
353   0  1  8.566127 14.279092  5.712991
354   0  1  8.565719 14.308255  8.596816
355   0  1  8.565727 14.289130 11.420337
356   0  1  8.565417 14.308564 14.244794
357   0  1  8.565428 14.279514 17.129680
358   0  1  8.566289 14.277854 19.987318
359   0  1  8.566314 14.277368 22.842794
360   0  1  8.566798 14.278008 25.698596
361   0  1  8.572658 17.138925 28.547692
362   0  1  8.566922 17.133104  2.854668
363   0  1  8.565612 17.132076  5.712155
364   0  1  8.565251 17.131980  8.577357
365   0  1  8.565509 17.132211 11.420291
366   0  1  8.565099 17.132544 14.263541
367   0  1  8.565524 17.132977 17.130419
368   0  1  8.571547 17.138085 19.993125
369   0  1  8.569108 17.135325 22.843227
370   0  1  8.569504 17.135701 25.698399
371   0  1  8.569656 19.987867 28.550411
372   0  1  8.566517 19.987373  2.854706
373   0  1  8.565397 19.985738  5.712284
374   0  1  8.565416 19.955908  8.596289
375   0  1  8.565486 19.975390 11.419790
376   0  1  8.564864 19.956446 14.243949
377   0  1  8.565197 19.986072 17.129319
378   0  1  8.568620 19.987415 19.990242
379   0  1  8.565680 19.985621 22.841272
380   0  1  8.566059 19.985848 25.700433
381   0  1  8.569757 22.842127 28.550750
382   0  1  8.566620 22.841448  2.855760
383   0  1  8.565904 22.838473  5.713899
384   0  1  8.565516 22.840120  8.566532
385   0  1  8.565336 22.840604 11.419617
386   0  1  8.564697 22.840002 14.273105
387   0  1  8.564997 22.838350 17.127337
388   0  1  8.568528 22.841262 19.989007
389   0  1  8.565782 22.844151 22.840832
390   0  1  8.566221 22.844271 25.700384
391   0  1  8.572780 25.690802 28.548564
392   0  1  8.567091 25.695273  2.856214
393   0  1  8.565907 25.695986  5.711394
394   0  1  8.565389 25.696938  8.565072
395   0  1  8.565105 25.696987 11.419412
396   0  1  8.564492 25.696806 14.274200
397   0  1  8.565018 25.695621 17.130317
398   0  1  8.571197 25.690614 19.991526
399   0  1  8.569191 25.694353 22.842271
400   0  1  8.569720 25.694338 25.698251
401   0  1 11.422590 28.551549  0.001054
402   0  1 11.422630 28.551623  2.855863
403   0  1 11.422226 28.552648  5.710806
404   0  1 11.421994 28.553026  8.565279
405   0  1 11.421834 28.552711 11.419913
406   0  1 11.421397 28.552384 14.275447
407   0  1 11.421405 28.551928 17.131619
408   0  1 11.421891 28.552473 19.986519
409   0  1 11.421662  0.000217 22.842075
410   0  1 11.421911 28.552948 25.698894
411   0  1 11.421616  2.855071  0.001050
412   0  1 11.421883  2.855031  2.856274
413   0  1 11.421820  2.855332  5.710951
414   0  1 11.421547  2.855297  8.565424
415   0  1 11.421413  2.854995 11.420393
416   0  1 11.421371  2.854673 14.275748
417   0  1 11.421697  2.855007 17.130878
418   0  1 11.421902  2.855424 19.986315
419   0  1 11.421642  2.855546 22.842400
420   0  1 11.421487  2.855325 25.698494
421   0  1 11.421267  5.711030  0.001260
422   0  1 11.421563  5.711125  2.856852
423   0  1 11.421494  5.710891  5.711308
424   0  1 11.421024  5.710457  8.565485
425   0  1 11.420903  5.710209 11.420501
426   0  1 11.420977  5.710283 14.275806
427   0  1 11.421618  5.710789 17.130732
428   0  1 11.421861  5.711231 19.986074
429   0  1 11.421466  5.711193 22.842257
430   0  1 11.421205  5.710953 25.698411
431   0  1 11.421500  8.566859  0.001522
432   0  1 11.421652  8.567663  2.857789
433   0  1 11.421317  8.567631  5.712254
434   0  1 11.420886  8.566748  8.565735
435   0  1 11.420488  8.566354 11.420494
436   0  1 11.420797  8.566894 14.275568
437   0  1 11.421325  8.567566 17.129924
438   0  1 11.421736  8.567413 19.985345
439   0  1 11.421537  8.566698 22.842295
440   0  1 11.421439  8.566560 25.698574
441   0  1 11.422447 11.422838  0.001752
442   0  1 11.422199 11.423705  2.857779
443   0  1 11.419962 11.426964  5.715688
444   0  1 11.420223 11.424776  8.566648
445   0  1 11.419941 11.421756 11.420147
446   0  1 11.419830 11.425122 14.274422
447   0  1 11.419409 11.426624 17.126552
448   0  1 11.421627 11.422643 19.985436
449   0  1 11.421827 11.421752 22.842635
450   0  1 11.422046 11.422179 25.699046
451   0  1 11.425122 14.280519  0.003035
452   0  1 11.424103 14.279992  2.856544
453   0  1 11.422503 14.279735  5.713663
454   0  1 11.422740 14.285185  8.572097
455   0  1 11.422829 14.241625 11.418159
456   0  1 11.421211 14.284410 14.268558
457   0  1 11.420313 14.278744 17.129336
458   0  1 11.421846 14.277477 19.986783
459   0  1 11.421909 14.276458 22.842747
460   0  1 11.422532 14.277180 25.699316
461   0  1 11.424524 17.135951 28.552247
462   0  1 11.423335 17.132788  2.856416
463   0  1 11.420971 17.131948  5.710341
464   0  1 11.421423 17.131593  8.527331
465   0  1 27.125068 27.126229 21.411044
466   0  1 11.420116 17.131602 14.313780
467   0  1 11.419767 17.131980 17.132655
468   0  1 11.421816 17.134688 19.990080
469   0  1 11.420387 17.131675 22.841266
470   0  1 11.421008 17.132102 25.700522
471   0  1 11.422269 19.985332  0.002473
472   0  1 11.422104 19.986392  2.857348
473   0  1 11.417208 19.985453  5.713552
474   0  1 11.421063 19.979446  8.572230
475   0  1 11.421325 20.024608 11.418914
476   0  1 11.420287 19.979704 14.268404
477   0  1 11.419023 19.985410 17.128405
478   0  1 11.419244 19.984896 19.986347
479   0  1 11.462589 20.027786 22.883541
480   0  1 11.463341 20.028067 25.657808
481   0  1 11.422040 22.843333  0.002591
482   0  1 11.422069 22.840740  2.858003
483   0  1 11.419543 22.837036  5.715502
484   0  1 11.420395 22.839005  8.566324
485   0  1 11.420827 22.842340 11.418811
486   0  1 11.419238 22.839509 14.274049
487   0  1 11.417925 22.837845 17.126219
488   0  1 11.418879 22.843014 19.985485
489   0  1 11.462324 22.801488 22.883106
490   0  1 11.463178 22.801332 25.657819
491   0  1 11.424873 25.691484  0.000233
492   0  1 11.423643 25.694368  2.856870
493   0  1 11.422946 25.694834  5.711764
494   0  1 11.422701 25.695624  8.565283
495   0  1 11.423183 25.695167 11.417920
496   0  1 11.420797 25.696635 14.274975
497   0  1 11.420473 25.695931 17.130698
498   0  1 11.421286 25.693426 19.988845
499   0  1 11.420019 25.697646 22.840460
500   0  1 11.420748 25.697360 25.700436
501   0  1 14.277950 28.552093  0.000931
502   0  1 14.277841 28.552682  2.855584
503   0  1 14.278066  0.000831  5.710831
504   0  1 14.277868  0.000981  8.565236
505   0  1 14.277348 28.553086 11.420244
506   0  1 14.277140 28.552577 14.275721
507   0  1 14.277349 28.552358 17.131764
508   0  1 14.277574 28.553012 19.987185
509   0  1 14.278104  0.000584 22.842637
510   0  1 14.278377  0.000032 25.699263
511   0  1 14.277954  2.855701  0.000902
512   0  1 14.278360  2.856137  2.856147
513   0  1 14.280638  2.858468  5.712615
514   0  1 14.279601  2.857502  8.565581
515   0  1 14.278997  2.856976 11.420596
516   0  1 14.278800  2.856482 14.275631
517   0  1 14.279851  2.857432 17.129015
518   0  1 14.278264  2.856070 19.986788
519   0  1 14.278193  2.856070 22.843187
520   0  1 14.278053  2.855800 25.698744
521   0  1 14.277428  5.711371  0.001140
522   0  1 14.277786  5.711627  2.856724
523   0  1 14.279688  5.711882  5.712382
524   0  1 14.278730  5.711736  8.565877
525   0  1 14.277788  5.711439 11.420594
526   0  1 14.277872  5.711414 14.275251
527   0  1 14.278960  5.711507 17.129455
528   0  1 14.278111  5.711563 19.986665
529   0  1 14.277989  5.711512 22.842975
530   0  1 14.277574  5.711262 25.698600
531   0  1 14.277313  8.567206  0.001557
532   0  1 14.277515  8.567907  2.857711
533   0  1 14.279359  8.567762  5.713172
534   0  1 14.278146  8.567126  8.566032
535   0  1 14.274195  8.567119 11.420449
536   0  1 14.277202  8.567326 14.274859
537   0  1 14.278451  8.567673 17.128724
538   0  1 14.277646  8.567525 19.986017
539   0  1 14.278030  8.566935 22.843095
540   0  1 14.277779  8.566914 25.698909
541   0  1 14.278221 11.423161  0.002010
542   0  1 14.277937 11.423330  2.857683
543   0  1 14.279132 11.424224  5.714704
544   0  1 14.278002 11.422976  8.566744
545   0  1 14.277189 11.423239 11.420037
546   0  1 14.276994 11.423759 14.273765
547   0  1 14.277895 11.424196 17.127270
548   0  1 14.277586 11.422313 19.986201
549   0  1 14.278274 11.421838 22.843474
550   0  1 14.278337 11.422573 25.699619
551   0  1 14.279209 14.279863  0.002867
552   0  1 14.279236 14.278955  2.857163
553   0  1 14.280598 14.276175  5.714417
554   0  1 14.264976 14.291811  8.580709
555   0  1 14.273477 14.283583 11.418795
556   0  1 14.263250 14.291771 14.259332
557   0  1 14.278500 14.276276 17.128401
558   0  1 14.277650 14.276975 19.987189
559   0  1 14.278741 14.276167 22.843542
560   0  1 14.279288 14.277124 25.699944
561   0  1 14.279216 17.136072 28.552235
562   0  1 14.293645 17.147697  2.872133
563   0  1 14.283697 17.137502  5.712408
564   0  1 14.286937 17.146793  8.556675
565   0  1 14.317194 17.131522 11.419644
566   0  1 14.270746 17.131307 14.269412
567   0  1 14.276260 17.131583 17.130860
568   0  1 14.277181 17.134247 19.990298
569   0  1 14.280028 17.131354 22.841613
570   0  1 14.280677 17.131835 25.700757
571   0  1 14.280311 19.985308  0.002042
572   0  1 14.283603 19.986500  2.863641
573   0  1 14.236966 19.985980  5.712921
574   0  1 14.267486 19.970394  8.575411
575   0  1 14.270656 19.979799 11.420341
576   0  1 14.260717 19.970611 14.260199
577   0  1 14.275715 19.985504 17.129822
578   0  1 14.278279 19.984809 19.986628
579   0  1 14.236774 20.027775 22.883755
580   0  1 14.237548 20.027820 25.658028
581   0  1 14.279818 22.842970  0.002267
582   0  1 14.292253 22.825936  2.873164
583   0  1 14.281770 22.833640  5.713449
584   0  1 14.290741 22.825321  8.551558
585   0  1 14.275840 22.840323 11.420054
586   0  1 14.275203 22.840585 14.275115
587   0  1 14.275594 22.839963 17.128802
588   0  1 14.277873 22.843247 19.985963
589   0  1 14.236322 22.801215 22.883504
590   0  1 14.237011 22.801309 25.657846
591   0  1 14.277670 25.692111 28.552828
592   0  1 14.277234 25.695256  2.857080
593   0  1 14.277048 25.696264  5.711543
594   0  1 14.276977 25.696544  8.565206
595   0  1 14.276538 25.695665 11.419040
596   0  1 14.276133 25.696723 14.275556
597   0  1 14.276021 25.696213 17.131377
598   0  1 14.276231 25.693614 19.989291
599   0  1 14.279022 25.697659 22.840822
600   0  1 14.279572 25.697266 25.700680
601   0  1 17.132822 28.551250  0.001083
602   0  1 17.133017 28.552394  2.855468
603   0  1 17.133612  0.000994  5.710391
604   0  1 17.133212  0.000525  8.565268
605   0  1 17.132632 28.552437 11.420379
606   0  1 17.132814 28.551853 14.275496
607   0  1 17.132834 28.552341 17.131787
608   0  1 17.132564 28.553028 19.987679
609   0  1 17.133121 28.552878 22.843331
610   0  1 17.133473 28.551545 25.699618
611   0  1 17.135103  2.856591  0.001033
612   0  1 17.135219  2.857018  2.855626
613   0  1 17.136795  2.859487  5.709778
614   0  1 17.134798  2.856693  8.565815
615   0  1 17.133798  2.855586 11.420767
616   0  1 17.133687  2.855265 14.275226
617   0  1 17.133753  2.856342 17.129576
618   0  1 17.133805  2.856068 19.987268
619   0  1 17.135918  2.857857 22.845417
620   0  1 17.135293  2.856680 25.699283
621   0  1 17.134197  5.711545  0.001010
622   0  1 17.134485  5.711674  2.855417
623   0  1 17.136178  5.712010  5.710103
624   0  1 17.149423  5.726523  8.580989
625   0  1 17.139184  5.717061 11.420830
626   0  1 17.148067  5.726153 14.260274
627   0  1 17.133484  5.711332 17.130222
628   0  1 17.133603  5.711149 19.987456
629   0  1 17.135401  5.711575 22.844622
630   0  1 17.134783  5.711519 25.699326
631   0  1 17.131014  8.567229  0.001427
632   0  1 17.133967  8.567557  2.856134
633   0  1 17.135571  8.567467  5.710580
634   0  1 17.139662  8.567167  8.571980
635   0  1 17.093250  8.567407 11.420646
636   0  1 17.138219  8.567504 14.269074
637   0  1 17.132571  8.567329 17.130013
638   0  1 17.133037  8.567004 19.987057
639   0  1 17.135389  8.566839 22.844851
640   0  1 17.134630  8.567010 25.699668
641   0  1 17.134859 11.423599  0.002408
642   0  1 17.134616 11.423626  2.856667
643   0  1 17.134100 11.424506  5.713065
644   0  1 17.148116 11.409119  8.581390
645   0  1 17.137934 11.418955 11.419978
646   0  1 17.146659 11.409833 14.258903
647   0  1 17.130504 11.424471 17.127628
648   0  1 17.132580 11.422281 19.986993
649   0  1 17.135304 11.421867 22.845193
650   0  1 17.135365 11.422965 25.700843
651   0  1 17.135974 14.280160  0.003853
652   0  1 17.135881 14.278855  2.857549
653   0  1 17.135809 14.272448  5.712376
654   0  1 17.134683 14.278069  8.565696
655   0  1 17.134137 14.279732 11.418043
656   0  1 17.132867 14.277610 14.274042
657   0  1 17.131138 14.276644 17.128687
658   0  1 17.132352 14.276994 19.987645
659   0  1 17.135787 14.275254 22.846081
660   0  1 17.136152 14.277631 25.700892
661   0  1 17.129478 17.140277 28.550736
662   0  1 17.133604 17.139801  2.863334
663   0  1 17.132687 17.093176  5.713103
664   0  1 17.133201 17.138605  8.559357
665   0  1 17.135984 17.132402 11.419826
666   0  1 17.132298 17.131897 14.275423
667   0  1 17.130364 17.132056 17.130653
668   0  1 17.126611 17.137124 19.993162
669   0  1 17.130823 17.134901 22.844015
670   0  1 17.132114 17.136018 25.699860
671   0  1 17.131431 19.988114 28.549834
672   0  1 17.132905 19.987871  2.817813
673   0  1 27.125074 27.125001 18.557647
674   0  1 17.131162 19.986493  8.605426
675   0  1 17.131431 19.985988 11.423677
676   0  1 17.131274 19.986113 14.275910
677   0  1 17.130011 19.986519 17.130745
678   0  1 17.128817 19.987098 19.990400
679   0  1 17.133442 19.985527 22.841527
680   0  1 17.134838 19.985947 25.701233
681   0  1 17.130554 22.840993 28.552815
682   0  1 17.131589 22.835177  2.862896
683   0  1 17.129341 22.878649  5.713342
684   0  1 17.129629 22.834533  8.560624
685   0  1 17.129585 22.839694 11.420593
686   0  1 17.130071 22.840318 14.275738
687   0  1 17.129038 22.839552 17.129722
688   0  1 17.128430 22.841638 19.990030
689   0  1 17.132884 22.844044 22.841316
690   0  1 17.134112 22.843882 25.701297
691   0  1 17.127401 25.688478 28.551033
692   0  1 17.131633 25.695457  2.856362
693   0  1 17.131724 25.699882  5.711090
694   0  1 17.131451 25.696913  8.565149
695   0  1 17.131156 25.695704 11.419307
696   0  1 17.131708 25.696715 14.275552
697   0  1 17.131325 25.696492 17.131875
698   0  1 17.126202 25.691457 19.992790
699   0  1 17.129520 25.694373 22.843085
700   0  1 17.130323 25.693461 25.699494
701   0  1 19.987878 28.550148  0.002920
702   0  1 19.988482 28.550669  2.855900
703   0  1 19.989489 28.552770  5.710207
704   0  1 19.989642  0.000079  8.566141
705   0  1 19.989549 28.551205 11.420011
706   0  1 19.990263 28.550761 14.273606
707   0  1 19.988083 28.552425 17.131493
708   0  1 19.988611  0.000542 19.987676
709   0  1 19.988652  0.000118 22.842712
710   0  1 19.987002 28.551116 25.699200
711   0  1 19.990218  2.853683  0.001793
712   0  1 19.990326  2.854454  2.855118
713   0  1 19.990557  2.857422  5.710137
714   0  1 19.990280  2.855492  8.566665
715   0  1 19.989905  2.851767 11.421171
716   0  1 19.989862  2.853983 14.274029
717   0  1 19.988930  2.856262 17.129049
718   0  1 19.989777  2.855981 19.987096
719   0  1 19.990200  2.856343 22.844555
720   0  1 19.989629  2.854858 25.699613
721   0  1 19.995644  5.716085  0.000985
722   0  1 20.004739  5.725488  2.840020
723   0  1 19.990169  5.711090  5.709833
724   0  1 19.989348  5.716990  8.572993
725   0  1 19.988723  5.671533 11.421504
726   0  1 19.987551  5.716496 14.269168