Generated by pymatgen.io.lammps.data.LammpsData

1236  atoms

   1  atom types

0.000000 28.553120  xlo xhi
0.000000 28.553120  ylo yhi
0.000000 28.553120  zlo zhi
0.000000 0.000000 0.000000  xy xz yz

Masses

1  55.847

Atoms

1     1  1 28.510811 28.511231 28.514233
2     1  1  0.000121 28.552161  2.859637
3     1  1  0.000245  0.001955  5.709470
4     1  1 28.552984  0.002122  8.567809
5     1  1 28.551221 28.549951 11.417052
6     1  1 28.551963 28.551167 14.273959
7     1  1 28.552329 28.552360 17.130534
8     1  1 28.552004  0.001279 19.985592
9     1  1  0.000406  0.002902 22.841817
10    1  1 28.511216 28.512170 25.739415
11    1  1 28.552174  2.855904  0.003373
12    1  1 28.549794  2.853305  2.852645
13    1  1 28.549210  2.858628  5.707617
14    1  1 28.551356  2.857437  8.565984
15    1  1 28.551430  2.858358 11.423599
16    1  1  0.000484  2.854093 14.273045
17    1  1  0.000364  2.855006 17.132025
18    1  1 28.551065  2.858657 19.984135
19    1  1 28.549287  2.854828 22.847841
20    1  1 28.552329  2.856543 25.697512
21    1  1 28.552179  5.711742  0.001217
22    1  1 28.551224  5.711239  2.854943
24    1  1 28.552592  5.711203  8.564721
25    1  1  0.001425  5.709431 11.420915
26    1  1 28.512067  5.751555 14.316886
27    1  1 28.511566  5.751416 17.089978
28    1  1  0.000265  5.708616 19.987546
29    1  1 28.550717  5.710604 22.845132
30    1  1 28.551884  5.711626 25.699203
31    1  1  0.002296  8.567019  0.001097
32    1  1 28.552039  8.567182  2.856053
33    1  1 28.551249  8.567018  5.709438
34    1  1  0.000175  8.566991  8.565029
35    1  1  0.002358  8.568708 11.420950
36    1  1 28.512814  8.526516 14.316757
37    1  1 28.512262  8.526359 17.089484
38    1  1  0.000790  8.568430 19.986266
39    1  1 28.550959  8.566876 22.844567
40    1  1 28.552030  8.566907 25.699272
41    1  1 28.551865 11.422014  0.001556
42    1  1 28.551942 11.421632  2.856484
45    1  1  0.001225 11.420658 11.423954
46    1  1  0.003297 11.424525 14.273200
47    1  1  0.003692 11.424728 17.129476
48    1  1 28.552265 11.418753 19.982425
50    1  1 28.551456 11.421881 25.699639
51    1  1 28.550178 14.277107  0.003293
52    1  1 28.550370 14.275605  2.857324
53    1  1 28.551057 14.273838  5.710958
54    1  1 28.552146 14.275756  8.566542
55    1  1 28.552207 14.278131 11.419400
56    1  1  0.000173 14.278565 14.274070
57    1  1  0.001106 14.277827 17.128601
61    1  1 28.551269 17.132823  0.003445
62    1  1 28.536625 17.146552  2.873151
63    1  1 28.548249 17.135142  5.712071
64    1  1 28.537676 17.144444  8.550829
65    1  1 28.548613 17.132275 11.418839
66    1  1 28.552704 17.132791 14.273847
67    1  1  0.001051 17.132024 17.129059
71    1  1 28.551671 19.987178  0.003226
72    1  1 28.545750 19.990922  2.867193
73    1  1  0.044555 19.983861  5.707837
74    1  1 28.546733 19.985674  8.558948
75    1  1 28.551725 19.989303 11.415353
76    1  1  0.000158 19.986663 14.273979
80    1  1 28.552359 19.986562 25.698477
81    1  1  0.000613 22.841247  0.003722
82    1  1 28.539295 22.827510  2.869362
83    1  1 28.506780 22.872038  5.755980
84    1  1 28.489413 22.864511  8.500572
85    1  1  0.001084 22.837228 11.417067
86    1  1  0.001410 22.839550 14.274845
89    1  1 28.552429 22.845683 22.845717
90    1  1  0.000867 22.842288 25.696775
91    1  1 28.511319 25.736876 28.514878
92    1  1  0.003397 25.697273  2.856930
93    1  1 28.511430 25.656921  5.753370
94    1  1 28.508853 25.655284  8.521856
95    1  1  0.000408 25.696349 11.417674
96    1  1 28.552956 25.695979 14.274775
98    1  1  0.000023 25.697123 19.985654
99    1  1  0.001092 25.696293 22.842000
100   1  1 28.511183 25.738521 25.739493
101   1  1  2.853335 28.553002  0.003793
102   1  1  2.844504 28.545748  2.858801
103   1  1  2.849785 28.549485  5.710328
104   1  1  2.849479 28.550455  8.565463
105   1  1  2.846389 28.546594 11.414090
109   1  1  2.850535  0.000273 22.845136
110   1  1  2.854034  0.001046 25.697038
111   1  1  2.850655  2.850571  0.001309
112   1  1  2.847357  2.848011  2.849967
115   1  1  2.847321  2.860139 11.425994
116   1  1  2.850884  2.856848 14.275352
117   1  1  2.851039  2.857616 17.130939
118   1  1  2.847233  2.860420 19.982021
119   1  1  2.847167  2.849774 22.848292
120   1  1  2.850809  2.851387 25.699009
125   1  1  2.851466  5.710895 11.424098
126   1  1  2.855115  5.708647 14.274377
127   1  1  2.854770  5.708618 17.133155
128   1  1  2.850426  5.710318 19.984543
135   1  1  2.852261  8.566500 11.424183
136   1  1  2.855902  8.568676 14.274359
137   1  1  2.855593  8.568919 17.132588
138   1  1  2.851332  8.566803 19.983018
144   1  1  2.854888 11.422636  8.567067
145   1  1  2.849716 11.417354 11.426566
146   1  1  2.853086 11.420817 14.275141
147   1  1  2.852868 11.421299 17.128656
148   1  1  2.848957 11.416436 19.979992
153   1  1  2.853935 14.278658  5.711947
154   1  1  2.868186 14.293037  8.581655
155   1  1  2.858048 14.285164 11.418786
156   1  1  2.869964 14.293378 14.259508
157   1  1  2.855753 14.278029 17.129581
162   1  1  2.853441 17.132700  2.857126
163   1  1  2.854401 17.132075  5.711622
164   1  1  2.859071 17.132074  8.570945
165   1  1  2.812196 17.133416 11.417491
166   1  1  2.860530 17.133287 14.267781
167   1  1  2.855908 17.132505 17.130196
171   1  1  2.851256 19.988355  0.003608
172   1  1  2.847677 19.993861  2.862396
173   1  1  2.854418 19.989712  5.711352
174   1  1  2.865367 19.974319  8.579399
175   1  1  2.852224 19.986854 11.411120
176   1  1  2.869412 19.972022 14.258199
177   1  1  2.856092 19.986297 17.129995
181   1  1  2.848856 22.845209  0.003191
182   1  1  2.844876 22.847538  2.854854
183   1  1  2.853814 22.837953  5.710904
184   1  1  2.852732 22.838091  8.565869
185   1  1  2.849387 22.840604 11.413817
186   1  1  2.854898 22.840435 14.273160
189   1  1  2.848362 22.848520 22.848710
190   1  1  2.850430 22.845744 25.699300
191   1  1  2.851515 25.692878  0.005933
192   1  1  2.846429 25.694656  2.857656
193   1  1  2.852494 25.696891  5.709203
194   1  1  2.852078 25.697029  8.566372
195   1  1  2.847598 25.693352 11.413177
199   1  1  2.851136 25.698033 22.845531
200   1  1  2.853943 25.695681 25.697196
201   1  1  5.710011 28.550359  0.001891
210   1  1  5.710475 28.551217 25.698604
226   1  1  5.710323  5.709742 14.275868
227   1  1  5.710162  5.709858 17.131797
236   1  1  5.711114  8.567047 14.275801
237   1  1  5.711030  8.567520 17.130909
244   1  1  5.710671 11.424416  8.567607
245   1  1  5.710920 11.420949 11.421322
246   1  1  5.711229 11.424764 14.274789
253   1  1  5.711374 14.278788  5.713193
254   1  1  5.709266 14.283554  8.573507
255   1  1  5.710025 14.238849 11.420530
256   1  1  5.709799 14.284284 14.268607
257   1  1  5.711899 14.279005 17.129600
263   1  1  5.710736 17.132984  5.709690
264   1  1  5.709885 17.132721  8.527442
265   1  1 27.124817 27.125669 24.230992
266   1  1  5.710137 17.133482 14.312246
267   1  1  5.712279 17.132949 17.132775
273   1  1  5.710225 19.987364  5.711990
274   1  1  5.709635 19.980670  8.571824
275   1  1  5.709577 20.025967 11.418862
276   1  1  5.709613 19.980789 14.267234
277   1  1  5.712134 19.986442 17.129554
279   1  1  5.708506 19.987898 22.843437
280   1  1  5.707792 19.988099 25.699611
283   1  1  5.711945 22.837967  5.713934
284   1  1  5.711350 22.839629  8.566140
285   1  1  5.710224 22.842946 11.418897
286   1  1  5.710329 22.839683 14.272864
289   1  1  5.708659 22.843221 22.843499
290   1  1  5.708247 22.843084 25.699638
291   1  1  5.709841 25.695545  0.001994
293   1  1  5.709314 25.696319  5.710487
294   1  1  5.709338 25.697077  8.565432
300   1  1  5.710329 25.696642 25.698742
344   1  1  8.565690 11.424376  8.567057
345   1  1  8.565855 11.423794 11.420633
346   1  1  8.566049 11.424805 14.274524
353   1  1  8.565894 14.279136  5.712747
354   1  1  8.565583 14.308331  8.596610
355   1  1  8.565682 14.289197 11.420237
356   1  1  8.565652 14.308431 14.245039
357   1  1  8.565712 14.279542 17.130043
361   1  1  8.571914 17.139187 28.548037
363   1  1  8.565174 17.132230  5.712053
364   1  1  8.564987 17.132041  8.577170
365   1  1  8.565270 17.132176 11.420345
366   1  1  8.565333 17.132472 14.263807
367   1  1  8.565808 17.133046 17.130793
368   1  1  8.571478 17.138308 19.993386
369   1  1  8.568700 17.135632 22.843479
370   1  1  8.568887 17.136013 25.698694
371   1  1  8.568981 19.987844 28.550933
373   1  1  8.564957 19.985854  5.712515
374   1  1  8.565155 19.956033  8.596303
375   1  1  8.565541 19.975494 11.419903
376   1  1  8.565321 19.956515 14.244325
377   1  1  8.565577 19.986143 17.129770
378   1  1  8.568570 19.987518 19.990591
379   1  1  8.565251 19.985733 22.841652
380   1  1  8.565439 19.985892 25.700875
381   1  1  8.569249 22.841730 28.551278
384   1  1  8.565408 22.840292  8.566578
385   1  1  8.565655 22.840840 11.419823
386   1  1  8.565378 22.840197 14.273630
388   1  1  8.568559 22.841207 19.989473
389   1  1  8.565407 22.843985 22.841323
390   1  1  8.565690 22.843976 25.700888
391   1  1  8.572501 25.690226 28.548858
398   1  1  8.571330 25.690407 19.992093
399   1  1  8.568909 25.693939 22.842806
400   1  1  8.569338 25.693760 25.698697
409   1  1 11.421651 28.552852 22.842285
410   1  1 11.421846 28.552438 25.699004
444   1  1 11.420090 11.424835  8.566623
445   1  1 11.419910 11.421896 11.420188
446   1  1 11.419882 11.425311 14.274499
452   1  1 11.423648 14.279992  2.856367
453   1  1 11.422201 14.279739  5.713522
454   1  1 11.422555 14.285280  8.572026
455   1  1 11.422753 14.241816 11.418104
456   1  1 11.421271 14.284631 14.268520
457   1  1 11.420410 14.278994 17.129335
459   1  1 11.421572 14.276689 22.842656
460   1  1 11.422004 14.277338 25.699181
461   1  1 11.423988 17.136024 28.552273
462   1  1 11.422902 17.132797  2.856400
463   1  1 11.420690 17.131935  5.710271
464   1  1 11.421253 17.131635  8.527240
465   1  1 27.125027 27.126009 21.411384
466   1  1 11.420234 17.131784 14.313645
467   1  1 11.419920 17.132188 17.132609
468   1  1 11.421768 17.134909 19.990090
469   1  1 11.420053 17.131872 22.841264
470   1  1 11.420494 17.132243 25.700532
471   1  1 11.421847 19.985276  0.002672
472   1  1 11.421780 19.986333  2.857514
473   1  1 11.416996 19.985392  5.713591
474   1  1 11.420945 19.979428  8.572143
475   1  1 11.421392 20.024652 11.418737
476   1  1 11.420526 19.979787 14.268255
477   1  1 11.419284 19.985491 17.128385
478   1  1 11.419274 19.984971 19.986425
479   1  1 11.462353 20.027880 22.883672
480   1  1 11.462884 20.028033 25.657989
481   1  1 11.421756 22.843100  0.002870
482   1  1 11.421865 22.840570  2.858250
483   1  1 11.419419 22.836968  5.715612
484   1  1 11.420416 22.838972  8.566250
485   1  1 11.421062 22.842322 11.418668
486   1  1 11.419659 22.839484 14.273972
487   1  1 11.418324 22.837781 17.126289
488   1  1 11.419006 22.842894 19.985658
489   1  1 11.462208 22.801232 22.883353
490   1  1 11.462852 22.801117 25.658062
491   1  1 11.424735 25.691084  0.000444
493   1  1 11.422991 25.694737  5.711842
498   1  1 11.421488 25.693138 19.989096
499   1  1 11.419944 25.697266 22.840700
500   1  1 11.420576 25.696931 25.700654
509   1  1 14.278086  0.000119 22.842657
510   1  1 14.278291 28.552703 25.699285
515   1  1 14.279354  2.856670 11.420608
524   1  1 14.278668  5.711560  8.565896
525   1  1 14.277807  5.711318 11.420712
526   1  1 14.277921  5.711295 14.275416
533   1  1 14.278921  8.567460  5.713030
534   1  1 14.277820  8.566937  8.566066
535   1  1 14.273979  8.567034 11.420605
536   1  1 14.277057  8.567313 14.275048
537   1  1 14.278331  8.567678 17.128823
544   1  1 14.277570 11.422791  8.566782
545   1  1 14.276906 11.423216 11.420167
546   1  1 14.276829 11.423888 14.273858
552   1  1 14.278546 14.278588  2.856776
553   1  1 14.280108 14.275886  5.714251
554   1  1 14.264683 14.291718  8.580704
555   1  1 14.273366 14.283720 11.418788
556   1  1 14.263296 14.292133 14.259136
557   1  1 14.278537 14.276636 17.128130
559   1  1 14.278287 14.276230 22.843139
560   1  1 14.278576 14.276983 25.699439
561   1  1 14.278578 17.135886 28.551885
562   1  1 14.293158 17.147431  2.871876
563   1  1 14.283436 17.137246  5.712246
564   1  1 14.286911 17.146745  8.556523
565   1  1 14.317382 17.131799 11.419327
566   1  1 14.271020 17.131684 14.268982
567   1  1 14.276438 17.131889 17.130476
568   1  1 14.277116 17.134440 19.989998
569   1  1 14.279656 17.131430 22.841291
570   1  1 14.280060 17.131781 25.700376
571   1  1 14.279893 19.985189  0.001908
572   1  1 14.283364 19.986299  2.863561
573   1  1 14.236892 19.985727  5.712771
574   1  1 14.267635 19.970300  8.575088
575   1  1 14.271025 19.979918 11.419825
576   1  1 14.261178 19.970776 14.259655
577   1  1 14.276028 19.985601 17.129422
578   1  1 14.278331 19.984837 19.986387
579   1  1 14.236562 20.027737 22.883522
580   1  1 14.237033 20.027841 25.657766
581   1  1 14.279605 22.842792  0.002323
582   1  1 14.292229 22.825711  2.873275
583   1  1 14.281887 22.833372  5.713427
584   1  1 14.291051 22.825058  8.551220
585   1  1 14.276400 22.840134 11.419502
586   1  1 14.275822 22.840426 14.274553
587   1  1 14.276020 22.839791 17.128455
588   1  1 14.278019 22.843075 19.985815
589   1  1 14.236231 22.801074 22.883377
590   1  1 14.236703 22.801105 25.657775
591   1  1 14.277607 25.691791 28.552972
592   1  1 14.277364 25.694875  2.857309
593   1  1 14.277352 25.695891  5.711628
594   1  1 14.277495 25.696141  8.565044
598   1  1 14.276420 25.693240 19.989246
599   1  1 14.278979 25.697317 22.840817
600   1  1 14.279419 25.696947 25.700707
611   1  1 17.134928  2.856101  0.000910
614   1  1 17.134814  2.856495  8.565713
615   1  1 17.133838  2.855402 11.420669
616   1  1 17.133649  2.855056 14.275195
621   1  1 17.133738  5.711055  0.000641
622   1  1 17.134038  5.711288  2.855136
623   1  1 17.135789  5.711755  5.709949
624   1  1 17.149106  5.726384  8.580960
625   1  1 17.138933  5.717007 11.420911
626   1  1 17.147843  5.726121 14.260407
627   1  1 17.133211  5.711245 17.130367
630   1  1 17.134376  5.711003 25.698976
631   1  1 17.130204  8.566554  0.000788
632   1  1 17.133164  8.566921  2.855684
633   1  1 17.134869  8.566963  5.710392
634   1  1 17.139091  8.566818  8.572019
635   1  1 17.092789  8.567203 11.420824
636   1  1 17.137890  8.567423 14.269265
637   1  1 17.132296  8.567322 17.130043
639   1  1 17.134874  8.566492 22.844400
640   1  1 17.133947  8.566452 25.699045
641   1  1 17.133654 11.422644  0.001436
642   1  1 17.133371 11.422578  2.855955
643   1  1 17.133009 11.423586  5.712789
644   1  1 17.147268 11.408415  8.581484
645   1  1 17.137311 11.418516 11.420244
646   1  1 17.146265 11.409714 14.259076
647   1  1 17.130272 11.424587 17.127488
650   1  1 17.134436 11.422357 25.699974
651   1  1 17.134734 14.279323  0.002874
652   1  1 17.134511 14.277693  2.856614
653   1  1 17.134733 14.271427  5.711999
654   1  1 17.133974 14.277405  8.565775
655   1  1 17.133733 14.279507 11.418250
656   1  1 17.132924 14.277997 14.273717
661   1  1 17.128283 17.139560 28.549743
662   1  1 17.132688 17.139102  2.862713
663   1  1 17.132129 17.092368  5.712687
664   1  1 17.133175 17.138285  8.559205
665   1  1 17.136502 17.132962 11.419144
666   1  1 17.132839 17.132477 14.274604
667   1  1 17.130607 17.132371 17.130071
668   1  1 17.126571 17.137253 19.992684
669   1  1 17.130401 17.134839 22.843455
670   1  1 17.131215 17.135653 25.699020
671   1  1 17.130630 19.987777 28.549175
672   1  1 17.132427 19.987378  2.817348
674   1  1 17.131821 19.986435  8.604582
675   1  1 17.132492 19.986338 11.422457
676   1  1 17.132119 19.986351 14.274878
678   1  1 17.128914 19.987077 19.990020
679   1  1 17.133208 19.985456 22.841126
680   1  1 17.134182 19.985772 25.700626
681   1  1 17.130128 22.840847 28.552516
682   1  1 17.131638 22.834887  2.862872
683   1  1 17.129942 22.878003  5.713354
684   1  1 17.130797 22.833801  8.559652
685   1  1 17.131036 22.839295 11.419251
686   1  1 17.131100 22.839968 14.274687
688   1  1 17.128611 22.841405 19.989770
689   1  1 17.132805 22.843881 22.841074
690   1  1 17.133702 22.843746 25.700928
691   1  1 17.127199 25.688309 28.550970
692   1  1 17.132071 25.694781  2.856848
693   1  1 17.132599 25.699063  5.711298
694   1  1 17.132760 25.695945  8.564756
698   1  1 17.126381 25.691032 19.992645
699   1  1 17.129513 25.694055 22.842973
700   1  1 17.130083 25.693239 25.699298
701   1  1 19.987747 28.549701  0.002825
710   1  1 19.987143 28.550546 25.699300
711   1  1 19.989942  2.853350  0.001570
712   1  1 19.990016  2.854355  2.854853
714   1  1 19.990002  2.855778  8.566519
715   1  1 19.989511  2.852116 11.421196
716   1  1 19.989196  2.854388 14.274486
717   1  1 19.988491  2.856338 17.129413
720   1  1 19.989454  2.854387 25.699491
721   1  1 19.995163  5.715707  0.000566
722   1  1 20.004246  5.725245  2.839679
723   1  1 19.989726  5.711003  5.709646
724   1  1 19.988962  5.717049  8.572965
725   1  1 19.988343  5.671720 11.421615
726   1  1 19.987138  5.716692 14.269408
727   1  1 19.987294  5.710803 17.130765
729   1  1 19.990393  5.710485 22.843203
730   1  1 20.004647  5.724961 25.713912
731   1  1 19.948772  8.566508  0.000638
732   1  1 19.993623  8.566683  2.849264
733   1  1 19.988078  8.566477  5.707776
734   1  1 19.987944  8.566467  8.528032
736   1  1 19.986417  8.567432 14.314480
737   1  1 19.986516  8.567101 17.133689
739   1  1 19.989453  8.566351 22.842651
740   1  1 19.994565  8.566469 25.704716
741   1  1 19.993898 11.417376  0.001726
742   1  1 20.002566 11.407512  2.840773
743   1  1 19.987943 11.421292  5.711195
744   1  1 19.988322 11.415660  8.573166
745   1  1 19.988121 11.461594 11.420887
746   1  1 19.987487 11.416690 14.268828
747   1  1 19.987061 11.421864 17.129779
749   1  1 19.989010 11.421408 22.842976
750   1  1 20.003466 11.407768 25.714762
751   1  1 19.989787 14.282785  0.005690
752   1  1 19.988119 14.280320  2.856649
753   1  1 19.989047 14.276292  5.711311
754   1  1 19.990188 14.277837  8.565722
755   1  1 19.990819 14.283519 11.416512
756   1  1 19.988634 14.277178 14.274375
760   1  1 19.988313 14.278423 25.700260
761   1  1 19.989925 17.136287  0.005089
762   1  1 19.973648 17.150023  2.873089
763   1  1 19.983315 17.139422  5.710991
764   1  1 19.974824 17.148869  8.548502
765   1  1 19.990563 17.134574 11.417102
771   1  1 19.990982 19.989072  0.004837
772   1  1 19.983955 19.989435  2.863950
773   1  1 20.026651 19.988828  5.709864
774   1  1 19.983485 19.987958  8.557491
775   1  1 19.990002 19.987923 11.416940
779   1  1 19.989221 19.987791 22.842791
780   1  1 19.990224 19.988292 25.699725
781   1  1 19.990486 22.841295  0.004923
782   1  1 19.974616 22.826455  2.872416
783   1  1 19.982496 22.835154  5.710143
784   1  1 19.972660 22.825319  8.548937
785   1  1 19.988956 22.840612 11.416957
789   1  1 19.989085 22.843184 22.843160
790   1  1 19.989766 22.842733 25.699838
791   1  1 19.989674 25.691156  0.006506
792   1  1 19.989041 25.693389  2.857311
793   1  1 19.988907 25.694947  5.710004
794   1  1 19.988314 25.694684  8.564474
800   1  1 19.987520 25.695543 25.699577
801   1  1 22.842624 28.551471  0.004537
802   1  1 22.851241 28.545934  2.859203
803   1  1 22.845591 28.550392  5.710634
804   1  1 22.845581 28.550791  8.565953
805   1  1 22.849010 28.546239 11.414362
809   1  1 22.846107  0.000156 22.845475
810   1  1 22.842369 28.552824 25.697665
811   1  1 22.846097  2.847427  0.001352
812   1  1 22.849000  2.848956  2.849861
814   1  1 22.843031  2.856915  8.566805
815   1  1 22.848690  2.860995 11.426388
816   1  1 22.845300  2.857765 14.274613
817   1  1 22.845314  2.859422 17.128858
818   1  1 22.849169  2.860951 19.981562
819   1  1 22.849370  2.850964 22.849809
820   1  1 22.845962  2.851386 25.699715
821   1  1 22.843160  5.670534  0.000536
822   1  1 22.843208  5.716276  2.848561
823   1  1 22.842178  5.711516  5.710132
824   1  1 22.827561  5.726671  8.582016
825   1  1 22.839637  5.717512 11.424602
826   1  1 22.826931  5.724467 14.258728
827   1  1 22.841755  5.709287 17.131826
828   1  1 22.846302  5.710213 19.984137
829   1  1 22.843964  5.710570 22.843430
830   1  1 22.843251  5.716032 25.704942
831   1  1 27.124619 27.122748 12.845720
832   1  1 22.842297  8.566669  2.894694
833   1  1 22.841725  8.566313  5.714009
834   1  1 22.836604  8.566192  8.573386
835   1  1 22.885487  8.566362 11.424824
836   1  1 22.835900  8.568742 14.268009
837   1  1 22.841630  8.568342 17.131971
838   1  1 22.845987  8.566124 19.982934
839   1  1 22.843213  8.566470 22.839482
840   1  1 22.842559  8.566742 25.659527
841   1  1 22.841722 11.462825  0.001898
842   1  1 22.841602 11.416269  2.849957
843   1  1 22.841062 11.420646  5.711331
844   1  1 22.826978 11.405478  8.582455
845   1  1 22.841762 11.410361 11.426585
846   1  1 22.829760 11.404217 14.259851
847   1  1 22.844820 11.418370 17.129489
848   1  1 22.848430 11.415833 19.980186
849   1  1 22.843040 11.421007 22.842503
850   1  1 22.842164 11.416996 25.705673
851   1  1 22.840217 14.285018  0.006019
852   1  1 22.840963 14.279100  2.857418
853   1  1 22.840597 14.275275  5.711155
854   1  1 22.840853 14.276918  8.565779
855   1  1 22.840324 14.279612 11.417121
856   1  1 22.841709 14.276761 14.274385
857   1  1 22.842075 14.275190 17.129136
860   1  1 22.842091 14.277775 25.700310
861   1  1 22.842267 17.135268  0.005677
862   1  1 22.858677 17.149507  2.874663
863   1  1 22.848806 17.138192  5.710962
864   1  1 22.857562 17.147668  8.548619
865   1  1 22.841789 17.133728 11.417202
871   1  1 22.843959 19.989234  0.005721
872   1  1 22.858258 19.995573  2.871875
873   1  1 22.811443 19.991007  5.710615
874   1  1 22.852857 19.991031  8.556905
875   1  1 22.847676 19.993497 11.411542
881   1  1 22.846519 22.844395  0.005291
882   1  1 22.868858 22.832180  2.872237
883   1  1 22.851489 22.835730  5.708744
884   1  1 22.857384 22.824015  8.550602
885   1  1 22.844971 22.841200 11.414009
889   1  1 22.849192 22.848576 22.848593
890   1  1 22.846373 22.845555 25.699534
891   1  1 22.841318 25.690557  0.008318
892   1  1 22.848869 25.694043  2.858428
893   1  1 22.841720 25.697867  5.708703
894   1  1 22.840673 25.697607  8.567172
895   1  1 22.844172 25.692057 11.412363
899   1  1 22.846116 25.698011 22.845692
900   1  1 22.842466 25.694758 25.697867
901   1  1 25.738184 28.510205 28.514378
902   1  1 25.695440 28.551448  2.859935
903   1  1 25.694244  0.002350  5.709765
904   1  1 25.694728  0.002120  8.568221
905   1  1 25.697164 28.549647 11.417131
906   1  1 25.696687 28.550789 14.273616
907   1  1 25.696769 28.552454 17.130235
908   1  1 25.697258  0.001339 19.985617
909   1  1 25.695656  0.002641 22.841900
910   1  1 25.737941 28.510967 25.739984
911   1  1 25.695121  2.854650  0.003326
912   1  1 25.696558  2.852762  2.852675
913   1  1 25.694030  2.860057  5.710614
914   1  1 25.695246  2.858839  8.566687
915   1  1 25.695968  2.859810 11.423738
916   1  1 25.693995  2.855431 14.272593
917   1  1 25.693124  2.857069 17.129794
918   1  1 25.697266  2.858804 19.983822
919   1  1 25.697306  2.853974 22.847150
920   1  1 25.695066  2.855510 25.697811
921   1  1 25.691029  5.717368  0.001071
922   1  1 25.681747  5.726144  2.840002
923   1  1 25.695093  5.711685  5.710383
924   1  1 25.696447  5.711792  8.565961
925   1  1 25.695421  5.710079 11.421134
926   1  1 25.737230  5.752284 14.316305
927   1  1 25.736660  5.751979 17.088330
928   1  1 25.695692  5.708575 19.987037
929   1  1 25.696859  5.710716 22.844443
930   1  1 25.681773  5.726465 25.714114
931   1  1 25.736403  8.567051  0.000972
932   1  1 25.691071  8.567091  2.850156
933   1  1 25.695370  8.566744  5.711794
934   1  1 25.697112  8.566919  8.566212
935   1  1 25.698966  8.568743 11.421123
936   1  1 25.737785  8.526436 14.316136
937   1  1 25.737211  8.525780 17.087893
938   1  1 25.696091  8.568291 19.985818
939   1  1 25.696803  8.566894 22.843628
940   1  1 25.690975  8.567031 25.705117
941   1  1 25.690572 11.416731  0.001695
942   1  1 25.681395 11.406670  2.841450
943   1  1 25.695047 11.420635  5.712340
944   1  1 25.696630 11.420757  8.567400
945   1  1 25.697164 11.418801 11.423986
946   1  1 25.694979 11.422745 14.272616
947   1  1 25.694629 11.422201 17.130041
948   1  1 25.697886 11.418447 19.982186
949   1  1 25.696890 11.420914 22.842910
950   1  1 25.681296 11.407460 25.714979
951   1  1 25.696174 14.278859  0.003905
952   1  1 25.696287 14.276252  2.857536
953   1  1 25.694366 14.269043  5.712533
954   1  1 25.695021 14.273840  8.566266
955   1  1 25.695056 14.276433 11.419021
956   1  1 25.695047 14.276566 14.274109
957   1  1 25.695130 14.275270 17.127937
960   1  1 25.696254 14.276643 25.700136
961   1  1 25.697301 17.133655  0.003834
962   1  1 25.698055 17.137983  2.864535
963   1  1 25.697689 17.089343  5.711827
964   1  1 25.696467 17.135394  8.559596
965   1  1 25.696280 17.132348 11.418938
971   1  1 25.697592 19.987414  0.000612
972   1  1 25.699337 19.990575  2.822696
973   1  1 27.124506 27.118991  9.986166
974   1  1 25.693636 19.983863  8.607558
975   1  1 25.697263 19.989870 11.418667
980   1  1 25.697202 19.986737 25.698542
981   1  1 25.695874 22.841299  0.004266
982   1  1 25.697450 22.838706  2.862545
983   1  1 25.752784 22.942408  5.765123
984   1  1 25.741784 22.874194  8.516048
985   1  1 25.696494 22.838838 11.418312
986   1  1 25.697538 22.841145 14.275259
989   1  1 25.698180 22.845730 22.845729
990   1  1 25.695766 22.842224 25.697133
991   1  1 25.737746 25.735990 28.515822
992   1  1 25.694369 25.696930  2.857832
993   1  1 25.737328 25.662472  5.751951
994   1  1 25.738268 25.657194  8.524256
995   1  1 25.695782 25.696115 11.417764
996   1  1 25.697372 25.695897 14.274698
998   1  1 25.697964 25.697267 19.985787
999   1  1 25.696055 25.696252 22.842094
1000  1  1 25.738321 25.738217 25.739927
1001  1  1  1.409891  1.410715  1.414536
1002  1  1  1.424465  1.427017  4.282647
1003  1  1  1.424600  1.428725  7.137444
1004  1  1  1.424870  1.428704  9.993825
1005  1  1  1.425326  1.426169 12.846750
1006  1  1  1.425964  1.427136 15.702657
1007  1  1  1.425805  1.428399 18.558206
1008  1  1  1.424589  1.429535 21.414722
1009  1  1  1.410402  1.412809 24.286053
1010  1  1  1.419557  1.421054 27.126912
1011  1  1  1.425600  4.282040  1.427862
1014  1  1  1.426044  4.283913  9.993907
1015  1  1  1.411442  4.297925 12.863667
1016  1  1  1.420700  4.288518 15.703169
1017  1  1  1.410934  4.297997 18.543859
1018  1  1  1.424689  4.282232 21.416193
1019  1  1  1.425387  4.282480 24.271950
1020  1  1  1.425804  4.282080 27.126816
1021  1  1  1.427775  7.138922  1.428891
1024  1  1  1.426960  7.138867  9.993725
1025  1  1  1.421550  7.138843 12.854938
1026  1  1  1.466800  7.138784 15.703610
1027  1  1  1.420654  7.138596 18.552705
1028  1  1  1.425339  7.138681 21.414668
1030  1  1  1.427711  7.138550 27.126202
1031  1  1  1.427960  9.995036  1.429203
1034  1  1  1.427550  9.994283  9.994239
1035  1  1  1.413024  9.979977 12.863716
1036  1  1  1.422305  9.989459 15.702567
1037  1  1  1.412135  9.979880 18.542226
1038  1  1  1.425688  9.993764 21.413872
1040  1  1  1.427711  9.994923 27.126349
1043  1  1  1.432273 12.855013  7.144199
1044  1  1  1.429474 12.851495  9.994656
1045  1  1  1.429916 12.853032 12.847747
1046  1  1  1.433140 12.855757 15.696754
1047  1  1  1.427373 12.849444 18.556880
1051  1  1  1.419985 15.709874  1.435367
1052  1  1  1.423824 15.705999  4.284345
1053  1  1  1.426226 15.705430  7.140858
1054  1  1  1.420344 15.707560  9.985462
1055  1  1  1.425985 15.703910 12.848447
1056  1  1  1.430481 15.705608 15.699354
1061  1  1  1.422762 18.561238  1.434416
1062  1  1  1.427883 18.557050  4.282021
1063  1  1  1.429776 18.556513  7.142827
1064  1  1  1.421739 18.561985  9.986136
1065  1  1  1.425552 18.563056 12.846742
1066  1  1  1.430468 18.559547 15.699392
1071  1  1  1.422515 21.415622  1.432832
1072  1  1  1.412390 21.432796  4.296778
1073  1  1  1.424686 21.414973  7.145391
1074  1  1  1.409180 21.426430  9.971642
1075  1  1  1.428867 21.411422 12.844934
1076  1  1  1.433593 21.408005 15.696794
1079  1  1  1.426058 21.415617 24.271250
1080  1  1  1.425480 21.415217 27.127161
1081  1  1  1.405244 24.278776  1.420562
1082  1  1  1.416643 24.265705  4.291249
1083  1  1  1.462195 24.265745  7.138218
1084  1  1  1.412284 24.261419  9.977543
1085  1  1  1.425725 24.267320 12.845008
1088  1  1  1.426704 24.270425 21.415090
1089  1  1  1.411205 24.285711 24.285935
1090  1  1  1.419660 24.275653 27.127227
1091  1  1  1.419460 27.123755  1.424085
1092  1  1  1.410275 27.109474  4.298974
1093  1  1  1.419538 27.119391  7.138416
1094  1  1  1.409332 27.108789  9.975992
1095  1  1  1.425579 27.122797 12.845528
1098  1  1  1.426105 27.125748 21.414626
1099  1  1  1.420241 27.125653 24.276473
1100  1  1  1.465296 27.124402 27.127141
1101  1  1  4.278808  1.422959  1.430082
1109  1  1  4.280869  1.426304 24.270874
1110  1  1  4.281142  1.425206 27.126833
1115  1  1  4.280870  4.282436 12.848646
1116  1  1  4.281472  4.282380 15.703532
1117  1  1  4.280659  4.282621 18.559163
1125  1  1  4.282156  7.138446 12.849115
1126  1  1  4.285402  7.138558 15.703772
1127  1  1  4.281580  7.138557 18.558574
1134  1  1  4.281429  9.994309  9.994789
1135  1  1  4.282522  9.994460 12.849008
1136  1  1  4.283207  9.995557 15.702811
1137  1  1  4.282670  9.995675 18.556580
1143  1  1  4.282423 12.853987  7.142656
1144  1  1  4.278236 12.848348  9.994003
1145  1  1  4.279150 12.849766 12.849156
1146  1  1  4.282317 12.853016 15.699529
1152  1  1  4.282470 15.705265  4.283657
1153  1  1  4.280228 15.703282  7.138704
1154  1  1  4.321676 15.746183 10.033849
1155  1  1  4.322163 15.746823 12.805440
1156  1  1  4.281419 15.704091 15.702614
1157  1  1  4.283241 15.704869 18.558978
1162  1  1  4.281400 18.561378  4.283247
1163  1  1  4.279481 18.562294  7.138239
1164  1  1  4.320175 18.520355 10.032473
1165  1  1  4.319695 18.521337 12.803278
1166  1  1  4.281294 18.561683 15.702347
1167  1  1  4.283242 18.560065 18.559438