Generated by pymatgen.io.lammps.data.LammpsData

1999  atoms

   2  atom types

0.000000 28.553120  xlo xhi
0.000000 28.553120  ylo yhi
0.000000 28.553120  zlo zhi
0.000000 0.000000 0.000000  xy xz yz

Masses

1  55.847000
2  30.973762

Atoms

1     0  1 27.839485 27.839485 27.839485
2     0  1  0.001920  0.001920  2.900052
3     0  1 28.552875 28.552875  5.713362
4     0  1 28.552941 28.552941  8.566354
5     0  1  0.000046  0.000046 11.421470
6     0  1  0.000226  0.000226 14.276688
7     0  1  0.000431  0.000431 17.131841
8     0  1  0.001011  0.001011 19.986384
9     0  1  0.005170  0.005170 22.834529
10    0  1 28.544668 28.544668 25.632948
11    0  1  0.001920  2.900052  0.001920
12    0  1 28.544642  2.838981  2.838981
13    0  1 28.551744  2.852599  5.707703
14    0  1 28.552894  2.854753  8.565466
15    0  1  0.000030  2.855286 11.421222
16    0  1  0.000146  2.855547 14.276587
17    0  1  0.000184  2.855778 17.131777
18    0  1 28.553066  2.856090 19.986781
19    0  1 28.552181  2.855122 22.842377
20    0  1  0.010909  2.854432 25.693851
21    0  1 28.552875  5.713362 28.552875
22    0  1 28.551744  5.707703  2.852599
23    0  1 28.552455  5.706623  5.706623
24    0  1 28.552985  5.709360  8.564507
25    0  1  0.000050  5.710395 11.420860
26    0  1  0.000096  5.710792 14.276498
27    0  1  0.000074  5.710932 17.131920
28    0  1  0.000067  5.710705 19.987474
29    0  1  0.000723  5.710388 22.842790
30    0  1  0.001152  5.711489 25.696708
31    0  1 28.552941  8.566354 28.552941
32    0  1 28.552894  8.565466  2.854753
33    0  1 28.552985  8.564507  5.709360
34    0  1 28.553111  8.564605  8.564605
35    0  1  0.000081  8.565507 11.420691
36    0  1  0.000111  8.565984 14.276483
37    0  1  0.000148  8.566061 17.132062
38    0  1  0.000319  8.565980 19.987458
39    0  1  0.000450  8.566200 22.842446
40    0  1  0.000139  8.566414 25.697551
41    0  1  0.000046 11.421470  0.000046
42    0  1  0.000030 11.421222  2.855286
43    0  1  0.000050 11.420860  5.710395
44    0  1  0.000081 11.420691  8.565507
45    0  1  0.000115 11.420945 11.420945
46    0  1  0.000153 11.421318 14.276602
47    0  1  0.000219 11.421471 17.132109
48    0  1  0.000301 11.421523 19.987371
49    0  1  0.000297 11.421563 22.842560
50    0  1  0.000158 11.421549 25.697843
51    0  1  0.000226 14.276688  0.000226
52    0  1  0.000146 14.276587  2.855547
53    0  1  0.000096 14.276498  5.710792
54    0  1  0.000111 14.276483  8.565984
55    0  1  0.000153 14.276602 11.421318
56    0  1  0.000185 14.276875 14.276875
57    0  1  0.000211 14.277118 17.132360
58    0  1  0.000240 14.277119 19.987590
59    0  1  0.000264 14.276945 22.842758
60    0  1  0.000267 14.276775 25.698021
61    0  1  0.000431 17.131841  0.000431
62    0  1  0.000184 17.131777  2.855778
63    0  1  0.000074 17.131920  5.710932
64    0  1  0.000148 17.132062  8.566061
65    0  1  0.000219 17.132109 11.421471
66    0  1  0.000211 17.132360 14.277118
67    0  1  0.000178 17.132904 17.132904
68    0  1  0.000172 17.133088 19.988262
69    0  1  0.000244 17.132605 22.843173
70    0  1  0.000410 17.132027 25.698230
71    0  1  0.001011 19.986384  0.001011
72    0  1 28.553066 19.986781  2.856090
73    0  1  0.000067 19.987474  5.710705
74    0  1  0.000319 19.987458  8.565980
75    0  1  0.000301 19.987371 11.421523
76    0  1  0.000240 19.987590 14.277119
77    0  1  0.000172 19.988262 17.133088
78    0  1  0.000121 19.989698 19.989698
79    0  1  0.000186 19.989364 22.844498
80    0  1  0.000772 19.987310 25.698486
81    0  1  0.005170 22.834529  0.005170
82    0  1 28.552181 22.842377  2.855122
83    0  1  0.000723 22.842790  5.710388
84    0  1  0.000450 22.842446  8.566200
85    0  1  0.000297 22.842560 11.421563
86    0  1  0.000264 22.842758 14.276945
87    0  1  0.000244 22.843173 17.132605
88    0  1  0.000186 22.844498 19.989364
89    0  1  0.000605 22.849551 22.849551
90    0  1  0.002893 22.845824 25.698909
91    0  1 28.544668 25.632948 28.544668
92    0  1  0.010909 25.693851  2.854432
93    0  1  0.001152 25.696708  5.711489
94    0  1  0.000139 25.697551  8.566414
95    0  1  0.000158 25.697843 11.421549
96    0  1  0.000267 25.698021 14.276775
97    0  1  0.000410 25.698230 17.132027
98    0  1  0.000772 25.698486 19.987310
99    0  1  0.002893 25.698909 22.845824
100   0  1 28.498222 25.784620 25.784620
101   0  1  2.900052  0.001920  0.001920
102   0  1  2.838981 28.544642  2.838981
103   0  1  2.852599 28.551744  5.707703
104   0  1  2.854753 28.552894  8.565466
105   0  1  2.855286  0.000030 11.421222
106   0  1  2.855547  0.000146 14.276587
107   0  1  2.855778  0.000184 17.131777
108   0  1  2.856090 28.553066 19.986781
109   0  1  2.855122 28.552181 22.842377
110   0  1  2.854432  0.010909 25.693851
111   0  1  2.838981  2.838981 28.544642
112   0  1  2.836407  2.836407  2.836407
113   0  1  2.853502  2.853502  5.707711
114   0  1  2.854691  2.854691  8.564984
115   0  1  2.855191  2.855191 11.420957
116   0  1  2.855472  2.855472 14.276437
117   0  1  2.855714  2.855714 17.131569
118   0  1  2.856213  2.856213 19.986133
119   0  1  2.854556  2.854556 22.842579
120   0  1  2.830261  2.830261 25.719537
121   0  1  2.852599  5.707703 28.551744
122   0  1  2.853502  5.707711  2.853502
123   0  1  2.852713  5.706231  5.706231
124   0  1  2.854363  5.709084  8.564143
125   0  1  2.855099  5.710242 11.420630
126   0  1  2.855383  5.710715 14.276336
127   0  1  2.855496  5.710894 17.131748
128   0  1  2.855541  5.710606 19.987321
129   0  1  2.856211  5.709663 22.843228
130   0  1  2.853484  5.708315 25.699198
131   0  1  2.854753  8.565466 28.552894
132   0  1  2.854691  8.564983  2.854691
133   0  1  2.854363  8.564143  5.709084
134   0  1  2.854738  8.564417  8.564417
135   0  1  2.855142  8.565380 11.420535
136   0  1  2.855360  8.565910 14.276352
137   0  1  2.855482  8.566003 17.131967
138   0  1  2.855635  8.565785 19.987527
139   0  1  2.855678  8.565758 22.842770
140   0  1  2.855122  8.565801 25.698029
141   0  1  2.855286 11.421222  0.000030
142   0  1  2.855191 11.420957  2.855191
143   0  1  2.855099 11.420630  5.710242
144   0  1  2.855142 11.420535  8.565380
145   0  1  2.855260 11.420841 11.420841
146   0  1  2.855382 11.421237 14.276510
147   0  1  2.855492 11.421374 17.132060
148   0  1  2.855588 11.421372 19.987402
149   0  1  2.855577 11.421374 22.842656
150   0  1  2.855426 11.421365 25.697938
151   0  1  2.855547 14.276587  0.000146
152   0  1  2.855472 14.276437  2.855472
153   0  1  2.855383 14.276336  5.710715
154   0  1  2.855360 14.276352  8.565910
155   0  1  2.855382 14.276510 11.421237
156   0  1  2.855403 14.276784 14.276784
157   0  1  2.855419 14.277001 17.132278
158   0  1  2.855455 14.276991 19.987528
159   0  1  2.855518 14.276840 22.842702
160   0  1  2.855572 14.276714 25.697948
161   0  1  2.855778 17.131777  0.000184
162   0  1  2.855714 17.131569  2.855714
163   0  1  2.855496 17.131748  5.710894
164   0  1  2.855482 17.131967  8.566003
165   0  1  2.855492 17.132060 11.421374
166   0  1  2.855419 17.132278 14.277001
167   0  1  2.855272 17.132751 17.132751
168   0  1  2.855171 17.132903 19.988079
169   0  1  2.855308 17.132468 22.842956
170   0  1  2.855688 17.132045 25.697931
171   0  1  2.856090 19.986781 28.553066
172   0  1  2.856213 19.986133  2.856213
173   0  1  2.855541 19.987321  5.710606
174   0  1  2.855635 19.987527  8.565785
175   0  1  2.855588 19.987402 11.421372
176   0  1  2.855455 19.987528 14.276991
177   0  1  2.855171 19.988079 17.132903
178   0  1  2.854667 19.989352 19.989352
179   0  1  2.854219 19.989210 22.844172
180   0  1  2.855866 19.987540 25.697552
181   0  1  2.855122 22.842377 28.552181
182   0  1  2.854556 22.842579  2.854556
183   0  1  2.856211 22.843228  5.709663
184   0  1  2.855678 22.842770  8.565758
185   0  1  2.855577 22.842656 11.421374
186   0  1  2.855518 22.842702 14.276840
187   0  1  2.855308 22.842956 17.132468
188   0  1  2.854219 22.844172 19.989210
189   0  1  2.846973 22.852193 22.852193
190   0  1  2.856129 22.843667 25.695095
191   0  1  2.854432 25.693851  0.010909
192   0  1  2.830261 25.719537  2.830261
193   0  1  2.853484 25.699198  5.708315
194   0  1  2.855122 25.698029  8.565801
195   0  1  2.855426 25.697938 11.421365
196   0  1  2.855572 25.697948 14.276714
197   0  1  2.855688 25.697931 17.132045
198   0  1  2.855866 25.697552 19.987540
199   0  1  2.856129 25.695095 22.843667
200   0  1  2.859355 25.697275 25.697275
201   0  1  5.713362 28.552875 28.552875
202   0  1  5.707703 28.551744  2.852599
203   0  1  5.706623 28.552455  5.706623
204   0  1  5.709360 28.552985  8.564507
205   0  1  5.710395  0.000050 11.420860
206   0  1  5.710792  0.000096 14.276498
207   0  1  5.710932  0.000074 17.131920
208   0  1  5.710705  0.000067 19.987474
209   0  1  5.710388  0.000723 22.842790
210   0  1  5.711489  0.001152 25.696708
211   0  1  5.707703  2.852599 28.551744
212   0  1  5.707711  2.853502  2.853502
213   0  1  5.706231  2.852713  5.706231
214   0  1  5.709084  2.854363  8.564143
215   0  1  5.710242  2.855099 11.420630
216   0  1  5.710715  2.855383 14.276336
217   0  1  5.710894  2.855496 17.131748
218   0  1  5.710606  2.855541 19.987321
219   0  1  5.709663  2.856211 22.843228
220   0  1  5.708315  2.853484 25.699198
221   0  1  5.706623  5.706623 28.552455
222   0  1  5.706231  5.706231  2.852713
223   0  1  5.706252  5.706252  5.706252
224   0  1  5.709150  5.709150  8.564060
225   0  1  5.710181  5.710181 11.420462
226   0  1  5.710644  5.710644 14.276231
227   0  1  5.710808  5.710808 17.131743
228   0  1  5.710210  5.710210 19.987810
229   0  1  5.706905  5.706905 22.846270
230   0  1  5.707195  5.707195 25.698793
231   0  1  5.709360  8.564507 28.552985
232   0  1  5.709084  8.564143  2.854363
233   0  1  5.709150  8.564060  5.709150
234   0  1  5.709562  8.564405  8.564405
235   0  1  5.710211  8.565324 11.420454
236   0  1  5.710591  8.565850 14.276279
237   0  1  5.710727  8.565927 17.131966
238   0  1  5.710634  8.565543 19.987771
239   0  1  5.709894  8.564943 22.843573
240   0  1  5.709659  8.564807 25.698346
241   0  1  5.710395 11.420860  0.000050
242   0  1  5.710242 11.420630  2.855099
243   0  1  5.710181 11.420462  5.710181
244   0  1  5.710211 11.420454  8.565324
245   0  1  5.710413 11.420796 11.420796
246   0  1  5.710612 11.421185 14.276463
247   0  1  5.710730 11.421294 17.132064
248   0  1  5.710757 11.421225 19.987515
249   0  1  5.710638 11.421127 22.842868
250   0  1  5.710536 11.421031 25.698059
251   0  1  5.710792 14.276498  0.000096
252   0  1  5.710715 14.276336  2.855383
253   0  1  5.710644 14.276231  5.710644
254   0  1  5.710591 14.276279  8.565850
255   0  1  5.710612 14.276463 11.421185
256   0  1  5.710641 14.276725 14.276725
257   0  1  5.710654 14.276908 17.132228
258   0  1  5.710689 14.276895 19.987511
259   0  1  5.710779 14.276773 22.842687
260   0  1  5.710822 14.276647 25.697927
261   0  1  5.710932 17.131920  0.000074
262   0  1  5.710894 17.131748  2.855496
263   0  1  5.710808 17.131743  5.710808
264   0  1  5.710727 17.131966  8.565927
265   0  1  5.710730 17.132064 11.421294
266   0  1  5.710654 17.132228 14.276908
267   0  1  5.710456 17.132609 17.132609
268   0  1  5.710294 17.132762 19.987916
269   0  1  5.710650 17.132407 22.842666
270   0  1  5.710867 17.132147 25.697815
271   0  1  5.710705 19.987474  0.000067
272   0  1  5.710606 19.987321  2.855541
273   0  1  5.710210 19.987810  5.710210
274   0  1  5.710634 19.987771  8.565543
275   0  1  5.710757 19.987515 11.421225
276   0  1  5.710689 19.987511 14.276895
277   0  1  5.710294 19.987916 17.132762
278   0  1  5.709224 19.989121 19.989121
279   0  1  5.710233 19.988259 22.842712
280   0  1  5.710629 19.987830 25.697698
281   0  1  5.710388 22.842790  0.000723
282   0  1  5.709663 22.843228  2.856211
283   0  1  5.706905 22.846270  5.706905
284   0  1  5.709894 22.843573  8.564943
285   0  1  5.710638 22.842868 11.421127
286   0  1  5.710779 22.842687 14.276773
287   0  1  5.710650 22.842666 17.132407
288   0  1  5.710233 22.842712 19.988259
289   0  1  5.710308 22.843577 22.843577
290   0  1  5.711008 22.842903 25.698072
291   0  1  5.711489 25.696708  0.001152
292   0  1  5.708315 25.699198  2.853484
293   0  1  5.707195 25.698793  5.707195
294   0  1  5.709659 25.698346  8.564807
295   0  1  5.710536 25.698059 11.421031
296   0  1  5.710822 25.697927 14.276647
297   0  1  5.710867 25.697815 17.132147
298   0  1  5.710629 25.697698 19.987830
299   0  1  5.711008 25.698072 22.842903
300   0  1  5.713852 25.695968 25.695968
301   0  1  8.566354 28.552941 28.552941
302   0  1  8.565466 28.552894  2.854753
303   0  1  8.564507 28.552985  5.709360
304   0  1  8.564605 28.553111  8.564605
305   0  1  8.565507  0.000081 11.420691
306   0  1  8.565984  0.000111 14.276483
307   0  1  8.566061  0.000148 17.132062
308   0  1  8.565980  0.000319 19.987458
309   0  1  8.566200  0.000450 22.842446
310   0  1  8.566414  0.000139 25.697551
311   0  1  8.565466  2.854753 28.552894
312   0  1  8.564984  2.854691  2.854691
313   0  1  8.564143  2.854363  5.709084
314   0  1  8.564417  2.854738  8.564417
315   0  1  8.565380  2.855142 11.420535
316   0  1  8.565910  2.855360 14.276352
317   0  1  8.566003  2.855482 17.131967
318   0  1  8.565785  2.855635 19.987527
319   0  1  8.565758  2.855678 22.842770
320   0  1  8.565801  2.855122 25.698029
321   0  1  8.564507  5.709360 28.552985
322   0  1  8.564143  5.709084  2.854363
323   0  1  8.564060  5.709150  5.709150
324   0  1  8.564405  5.709562  8.564405
325   0  1  8.565324  5.710211 11.420454
326   0  1  8.565850  5.710591 14.276279
327   0  1  8.565927  5.710727 17.131966
328   0  1  8.565543  5.710634 19.987771
329   0  1  8.564943  5.709894 22.843573
330   0  1  8.564807  5.709659 25.698346
331   0  1  8.564605  8.564605 28.553111
332   0  1  8.564417  8.564417  2.854738
333   0  1  8.564405  8.564405  5.709562
334   0  1  8.564669  8.564669  8.564669
335   0  1  8.565412  8.565412 11.420550
336   0  1  8.565834  8.565834 14.276331
337   0  1  8.565846  8.565846 17.132103
338   0  1  8.565306  8.565306 19.988097
339   0  1  8.565055  8.565055 22.843284
340   0  1  8.564831  8.564831 25.698269
341   0  1  8.565507 11.420691  0.000081
342   0  1  8.565380 11.420535  2.855142
343   0  1  8.565324 11.420454  5.710211
344   0  1  8.565412 11.420550  8.565412
345   0  1  8.565649 11.420860 11.420860
346   0  1  8.565878 11.421185 14.276501
347   0  1  8.565946 11.421245 17.132133
348   0  1  8.565828 11.421095 19.987663
349   0  1  8.565743 11.420982 22.842923
350   0  1  8.565638 11.420849 25.698092
351   0  1  8.565984 14.276483  0.000111
352   0  1  8.565910 14.276352  2.855360
353   0  1  8.565850 14.276279  5.710591
354   0  1  8.565834 14.276331  8.565834
355   0  1  8.565878 14.276501 11.421185
356   0  1  8.565934 14.276715 14.276715
357   0  1  8.565955 14.276847 17.132215
358   0  1  8.566009 14.276808 19.987504
359   0  1  8.566049 14.276723 22.842729
360   0  1  8.566038 14.276614 25.697972
361   0  1  8.566061 17.132062  0.000148
362   0  1  8.566003 17.131967  2.855482
363   0  1  8.565927 17.131966  5.710727
364   0  1  8.565846 17.132103  8.565846
365   0  1  8.565946 17.132133 11.421245
366   0  1  8.565955 17.132215 14.276847
367   0  1  8.565818 17.132457 17.132457
368   0  1  8.565931 17.132423 19.987570
369   0  1  8.566060 17.132301 22.842676
370   0  1  8.566092 17.132181 25.697929
371   0  1  8.565980 19.987458  0.000319
372   0  1  8.565785 19.987527  2.855635
373   0  1  8.565543 19.987771  5.710634
374   0  1  8.565306 19.988097  8.565306
375   0  1  8.565828 19.987663 11.421095
376   0  1  8.566009 19.987504 14.276808
377   0  1  8.565931 19.987570 17.132423
378   0  1  8.565902 19.987774 19.987774
379   0  1  8.566163 19.987580 22.842706
380   0  1  8.566136 19.987488 25.698012
381   0  1  8.566200 22.842446  0.000450
382   0  1  8.565758 22.842770  2.855678
383   0  1  8.564943 22.843573  5.709894
384   0  1  8.565055 22.843284  8.565055
385   0  1  8.565743 22.842923 11.420982
386   0  1  8.566049 22.842729 14.276723
387   0  1  8.566060 22.842676 17.132301
388   0  1  8.566163 22.842706 19.987580
389   0  1  8.566668 22.842482 22.842482
390   0  1  8.566538 22.842422 25.698032
391   0  1  8.566414 25.697551  0.000139
392   0  1  8.565801 25.698029  2.855122
393   0  1  8.564807 25.698346  5.709659
394   0  1  8.564831 25.698269  8.564831
395   0  1  8.565638 25.698092 11.420849
396   0  1  8.566038 25.697972 14.276614
397   0  1  8.566092 25.697929 17.132181
398   0  1  8.566136 25.698012 19.987488
399   0  1  8.566538 25.698032 22.842422
400   0  1  8.566842 25.697555 25.697555
401   0  1 11.421470  0.000046  0.000046
402   0  1 11.421222  0.000030  2.855286
403   0  1 11.420860  0.000050  5.710395
404   0  1 11.420691  0.000081  8.565507
405   0  1 11.420945  0.000115 11.420945
406   0  1 11.421318  0.000153 14.276602
407   0  1 11.421471  0.000219 17.132109
408   0  1 11.421523  0.000301 19.987371
409   0  1 11.421563  0.000297 22.842560
410   0  1 11.421549  0.000158 25.697843
411   0  1 11.421222  2.855286  0.000030
412   0  1 11.420957  2.855191  2.855191
413   0  1 11.420630  2.855099  5.710242
414   0  1 11.420535  2.855142  8.565380
415   0  1 11.420841  2.855260 11.420841
416   0  1 11.421237  2.855382 14.276510
417   0  1 11.421374  2.855492 17.132060
418   0  1 11.421372  2.855588 19.987402
419   0  1 11.421374  2.855577 22.842656
420   0  1 11.421365  2.855426 25.697938
421   0  1 11.420860  5.710395  0.000050
422   0  1 11.420630  5.710242  2.855099
423   0  1 11.420462  5.710181  5.710181
424   0  1 11.420454  5.710211  8.565324
425   0  1 11.420796  5.710413 11.420796
426   0  1 11.421185  5.710612 14.276463
427   0  1 11.421294  5.710730 17.132064
428   0  1 11.421225  5.710757 19.987515
429   0  1 11.421127  5.710638 22.842868
430   0  1 11.421031  5.710536 25.698059
431   0  1 11.420691  8.565507  0.000081
432   0  1 11.420535  8.565380  2.855142
433   0  1 11.420454  8.565324  5.710211
434   0  1 11.420550  8.565412  8.565412
435   0  1 11.420860  8.565649 11.420860
436   0  1 11.421185  8.565878 14.276501
437   0  1 11.421245  8.565946 17.132133
438   0  1 11.421095  8.565828 19.987663
439   0  1 11.420982  8.565743 22.842923
440   0  1 11.420849  8.565638 25.698092
441   0  1 11.420945 11.420945  0.000115
442   0  1 11.420841 11.420841  2.855260
443   0  1 11.420796 11.420796  5.710413
444   0  1 11.420860 11.420860  8.565649
445   0  1 11.421040 11.421040 11.421040
446   0  1 11.421246 11.421246 14.276624
447   0  1 11.421278 11.421278 17.132204
448   0  1 11.421236 11.421236 19.987600
449   0  1 11.421162 11.421162 22.842863
450   0  1 11.421061 11.421061 25.698066
451   0  1 11.421318 14.276602  0.000153
452   0  1 11.421237 14.276510  2.855382
453   0  1 11.421185 14.276463  5.710612
454   0  1 11.421185 14.276501  8.565878
455   0  1 11.421246 14.276624 11.421246
456   0  1 11.421343 14.276763 14.276763
457   0  1 11.421423 14.276834 17.132226
458   0  1 11.421472 14.276834 19.987547
459   0  1 11.421462 14.276785 22.842801
460   0  1 11.421402 14.276702 25.698039
461   0  1 11.421471 17.132109  0.000219
462   0  1 11.421374 17.132060  2.855492
463   0  1 11.421294 17.132064  5.710730
464   0  1 11.421245 17.132133  8.565946
465   0  1 11.421278 17.132204 11.421278
466   0  1 11.421423 17.132226 14.276834
467   0  1 11.421528 17.132299 17.132299
468   0  1 11.421635 17.132290 19.987554
469   0  1 11.421644 17.132243 22.842789
470   0  1 11.421573 17.132177 25.698055
471   0  1 11.421523 19.987371  0.000301
472   0  1 11.421372 19.987402  2.855588
473   0  1 11.421225 19.987515  5.710757
474   0  1 11.421095 19.987663  8.565828
475   0  1 11.421236 19.987600 11.421236
476   0  1 11.421472 19.987547 14.276834
477   0  1 11.421635 19.987554 17.132290
478   0  1 11.421774 19.987530 19.987530
479   0  1 11.421790 19.987464 22.842771
480   0  1 11.421678 19.987401 25.698084
481   0  1 11.421563 22.842560  0.000297
482   0  1 11.421374 22.842656  2.855577
483   0  1 11.421127 22.842868  5.710638
484   0  1 11.420982 22.842923  8.565743
485   0  1 11.421162 22.842863 11.421162
486   0  1 11.421462 22.842801 14.276785
487   0  1 11.421644 22.842789 17.132243
488   0  1 11.421790 22.842771 19.987464
489   0  1 11.421868 22.842659 22.842659
490   0  1 11.421739 22.842586 25.698037
491   0  1 11.421549 25.697843  0.000158
492   0  1 11.421365 25.697938  2.855426
493   0  1 11.421031 25.698059  5.710536
494   0  1 11.420849 25.698092  8.565638
495   0  1 11.421061 25.698066 11.421061
496   0  1 11.421402 25.698039 14.276702
497   0  1 11.421573 25.698055 17.132177
498   0  1 11.421678 25.698084 19.987401
499   0  1 11.421739 25.698037 22.842586
500   0  1 11.421682 25.697898 25.697898
501   0  1 14.276688  0.000226  0.000226
502   0  1 14.276587  0.000146  2.855547
503   0  1 14.276498  0.000096  5.710792
504   0  1 14.276483  0.000111  8.565984
505   0  1 14.276602  0.000153 11.421318
506   0  1 14.276875  0.000185 14.276875
507   0  1 14.277118  0.000211 17.132360
508   0  1 14.277119  0.000240 19.987590
509   0  1 14.276945  0.000264 22.842758
510   0  1 14.276775  0.000267 25.698021
511   0  1 14.276587  2.855547  0.000146
512   0  1 14.276437  2.855472  2.855472
513   0  1 14.276336  2.855383  5.710715
514   0  1 14.276352  2.855360  8.565910
515   0  1 14.276510  2.855382 11.421237
516   0  1 14.276784  2.855403 14.276784
517   0  1 14.277001  2.855419 17.132278
518   0  1 14.276991  2.855455 19.987528
519   0  1 14.276840  2.855518 22.842702
520   0  1 14.276714  2.855572 25.697948
521   0  1 14.276498  5.710792  0.000096
522   0  1 14.276336  5.710715  2.855383
523   0  1 14.276231  5.710644  5.710644
524   0  1 14.276279  5.710591  8.565850
525   0  1 14.276463  5.710612 11.421185
526   0  1 14.276725  5.710641 14.276725
527   0  1 14.276908  5.710654 17.132228
528   0  1 14.276895  5.710689 19.987511
529   0  1 14.276773  5.710779 22.842687
530   0  1 14.276647  5.710822 25.697927
531   0  1 14.276483  8.565984  0.000111
532   0  1 14.276352  8.565910  2.855360
533   0  1 14.276279  8.565850  5.710591
534   0  1 14.276331  8.565834  8.565834
535   0  1 14.276501  8.565878 11.421185
536   0  1 14.276715  8.565934 14.276715
537   0  1 14.276847  8.565955 17.132215
538   0  1 14.276808  8.566009 19.987504
539   0  1 14.276723  8.566049 22.842729
540   0  1 14.276614  8.566038 25.697972
541   0  1 14.276602 11.421318  0.000153
542   0  1 14.276510 11.421237  2.855382
543   0  1 14.276463 11.421185  5.710612
544   0  1 14.276501 11.421185  8.565878
545   0  1 14.276624 11.421246 11.421246
546   0  1 14.276763 11.421343 14.276763
547   0  1 14.276834 11.421423 17.132226
548   0  1 14.276834 11.421472 19.987547
549   0  1 14.276785 11.421462 22.842801
550   0  1 14.276702 11.421402 25.698039
551   0  1 14.276875 14.276875  0.000185
552   0  1 14.276784 14.276784  2.855403
553   0  1 14.276725 14.276725  5.710641
554   0  1 14.276715 14.276715  8.565934
555   0  1 14.276763 14.276763 11.421343
556   0  1 14.276870 14.276870 14.276870
557   0  1 14.276993 14.276993 17.132324
558   0  1 14.277059 14.277059 19.987647
559   0  1 14.277043 14.277043 22.842886
560   0  1 14.276971 14.276971 25.698096
561   0  1 14.277118 17.132360  0.000211
562   0  1 14.277001 17.132278  2.855419
563   0  1 14.276908 17.132228  5.710654
564   0  1 14.276847 17.132215  8.565955
565   0  1 14.276834 17.132226 11.421423
566   0  1 14.276993 17.132324 14.276993
567   0  1 14.277221 17.132472 17.132472
568   0  1 14.277350 17.132548 19.987772
569   0  1 14.277342 17.132534 22.842971
570   0  1 14.277244 17.132457 25.698144
571   0  1 14.277119 19.987590  0.000240
572   0  1 14.276991 19.987528  2.855455
573   0  1 14.276895 19.987511  5.710689
574   0  1 14.276808 19.987504  8.566009
575   0  1 14.276834 19.987547 11.421472
576   0  1 14.277059 19.987647 14.277059
577   0  1 14.277350 19.987772 17.132548
578   0  1 14.277481 19.987818 19.987818
579   0  1 14.277434 19.987789 22.843008
580   0  1 14.277282 19.987692 25.698171
581   0  1 14.276945 22.842758  0.000264
582   0  1 14.276840 22.842702  2.855518
583   0  1 14.276773 22.842687  5.710779
584   0  1 14.276723 22.842729  8.566049
585   0  1 14.276785 22.842801 11.421462
586   0  1 14.277043 22.842886 14.277043
587   0  1 14.277342 22.842971 17.132534
588   0  1 14.277434 22.843008 19.987789
589   0  1 14.277309 22.842944 22.842944
590   0  1 14.277114 22.842856 25.698153
591   0  1 14.276775 25.698021  0.000267
592   0  1 14.276714 25.697948  2.855572
593   0  1 14.276647 25.697927  5.710822
594   0  1 14.276614 25.697972  8.566038
595   0  1 14.276702 25.698039 11.421402
596   0  1 14.276971 25.698096 14.276971
597   0  1 14.277244 25.698144 17.132457
598   0  1 14.277282 25.698171 19.987692
599   0  1 14.277114 25.698153 22.842856
600   0  1 14.276912 25.698089 25.698089
601   0  1 17.131841  0.000431  0.000431
602   0  1 17.131777  0.000184  2.855778
603   0  1 17.131920  0.000074  5.710932
604   0  1 17.132062  0.000148  8.566061
605   0  1 17.132109  0.000219 11.421471
606   0  1 17.132360  0.000211 14.277118
607   0  1 17.132904  0.000178 17.132904
608   0  1 17.133088  0.000172 19.988262
609   0  1 17.132605  0.000244 22.843173
610   0  1 17.132027  0.000410 25.698230
611   0  1 17.131777  2.855778  0.000184
612   0  1 17.131569  2.855714  2.855714
613   0  1 17.131748  2.855496  5.710894
614   0  1 17.131967  2.855482  8.566003
615   0  1 17.132060  2.855492 11.421374
616   0  1 17.132278  2.855419 14.277001
617   0  1 17.132751  2.855272 17.132751
618   0  1 17.132903  2.855171 19.988079
619   0  1 17.132468  2.855308 22.842956
620   0  1 17.132045  2.855688 25.697931
621   0  1 17.131920  5.710932  0.000074
622   0  1 17.131748  5.710894  2.855496
623   0  1 17.131743  5.710808  5.710808
624   0  1 17.131966  5.710727  8.565927
625   0  1 17.132064  5.710730 11.421294
626   0  1 17.132228  5.710654 14.276908
627   0  1 17.132609  5.710456 17.132609
628   0  1 17.132762  5.710294 19.987916
629   0  1 17.132407  5.710650 22.842666
630   0  1 17.132147  5.710867 25.697815
631   0  1 17.132062  8.566061  0.000148
632   0  1 17.131967  8.566003  2.855482
633   0  1 17.131966  8.565927  5.710727
634   0  1 17.132103  8.565846  8.565846
635   0  1 17.132133  8.565946 11.421245
636   0  1 17.132215  8.565955 14.276847
637   0  1 17.132457  8.565818 17.132457
638   0  1 17.132423  8.565931 19.987570
639   0  1 17.132301  8.566060 22.842676
640   0  1 17.132181  8.566092 25.697929
641   0  1 17.132109 11.421471  0.000219
642   0  1 17.132060 11.421374  2.855492
643   0  1 17.132064 11.421294  5.710730
644   0  1 17.132133 11.421245  8.565946
645   0  1 17.132204 11.421278 11.421278
646   0  1 17.132226 11.421423 14.276834
647   0  1 17.132299 11.421528 17.132299
648   0  1 17.132290 11.421635 19.987554
649   0  1 17.132243 11.421644 22.842789
650   0  1 17.132177 11.421573 25.698055
651   0  1 17.132360 14.277118  0.000211
652   0  1 17.132278 14.277001  2.855419
653   0  1 17.132228 14.276908  5.710654
654   0  1 17.132215 14.276847  8.565955
655   0  1 17.132226 14.276834 11.421423
656   0  1 17.132324 14.276993 14.276993
657   0  1 17.132472 14.277221 17.132472
658   0  1 17.132548 14.277350 19.987772
659   0  1 17.132534 14.277342 22.842971
660   0  1 17.132457 14.277244 25.698144
661   0  1 17.132904 17.132904  0.000178
662   0  1 17.132751 17.132751  2.855272
663   0  1 17.132609 17.132609  5.710456
664   0  1 17.132457 17.132457  8.565818
665   0  1 17.132299 17.132299 11.421528
666   0  1 17.132472 17.132472 14.277221
667   0  1 17.132882 17.132882 17.132882
668   0  1 17.133115 17.133115 19.988182
669   0  1 17.133157 17.133157 22.843270
670   0  1 17.133057 17.133057 25.698270
671   0  1 17.133088 19.988262  0.000172
672   0  1 17.132903 19.988079  2.855171
673   0  1 17.132762 19.987916  5.710294
674   0  1 17.132423 19.987570  8.565931
675   0  1 17.132290 19.987554 11.421635
676   0  1 17.132548 19.987772 14.277350
677   0  1 17.133115 19.988182 17.133115
678   0  1 17.133481 19.988521 19.988521
679   0  1 17.133506 19.988601 22.843552
680   0  1 17.133317 19.988465 25.698400
681   0  1 17.132605 22.843173  0.000244
682   0  1 17.132468 22.842956  2.855308
683   0  1 17.132407 22.842666  5.710650
684   0  1 17.132301 22.842676  8.566060
685   0  1 17.132243 22.842789 11.421644
686   0  1 17.132534 22.842971 14.277342
687   0  1 17.133157 22.843270 17.133157
688   0  1 17.133506 22.843552 19.988601
689   0  1 17.133223 22.843488 22.843488
690   0  1 17.132908 22.843394 25.698450
691   0  1 17.132027 25.698230  0.000410
692   0  1 17.132045 25.697931  2.855688
693   0  1 17.132147 25.697815  5.710867
694   0  1 17.132181 25.697929  8.566092
695   0  1 17.132177 25.698055 11.421573
696   0  1 17.132457 25.698144 14.277244
697   0  1 17.133057 25.698270 17.133057
698   0  1 17.133317 25.698400 19.988465
699   0  1 17.132908 25.698450 22.843394
700   0  1 17.132339 25.698329 25.698329
701   0  1 19.986384  0.001011  0.001011
702   0  1 19.986781 28.553066  2.856090
703   0  1 19.987474  0.000067  5.710705
704   0  1 19.987458  0.000319  8.565980
705   0  1 19.987371  0.000301 11.421523
706   0  1 19.987590  0.000240 14.277119
707   0  1 19.988262  0.000172 17.133088
708   0  1 19.989698  0.000121 19.989698
709   0  1 19.989364  0.000186 22.844498
710   0  1 19.987310  0.000772 25.698486
711   0  1 19.986781  2.856090 28.553066
712   0  1 19.986133  2.856213  2.856213
713   0  1 19.987321  2.855541  5.710606
714   0  1 19.987527  2.855635  8.565785
715   0  1 19.987402  2.855588 11.421372
716   0  1 19.987528  2.855455 14.276991
717   0  1 19.988079  2.855171 17.132903
718   0  1 19.989352  2.854667 19.989352
719   0  1 19.989210  2.854219 22.844172
720   0  1 19.987540  2.855866 25.697552
721   0  1 19.987474  5.710705  0.000067
722   0  1 19.987321  5.710606  2.855541
723   0  1 19.987810  5.710210  5.710210
724   0  1 19.987771  5.710634  8.565543
725   0  1 19.987515  5.710757 11.421225