Generated by pymatgen.io.lammps.data.LammpsData

1999  atoms

   2  atom types

0.000000 28.553120  xlo xhi
0.000000 28.553120  ylo yhi
0.000000 28.553120  zlo zhi
0.000000 0.000000 0.000000  xy xz yz

Masses

1  55.847000
2  30.973762

Atoms

1     0  1 28.536817 28.536817 28.536817
2     0  1 28.551754 28.551754  2.853575
3     0  1 28.552440 28.552440  5.709913
4     0  1 28.552568 28.552568  8.565389
5     0  1 28.552603 28.552603 11.420751
6     0  1 28.552568 28.552568 14.276113
7     0  1 28.552440 28.552440 17.131589
8     0  1 28.551754 28.551754 19.987928
9     0  1 28.536817 28.536817 22.857806
10    0  1 28.546071 28.546071 25.697311
11    0  1 28.551754  2.853575 28.551754
12    0  1 28.551916  2.852699  2.852699
13    0  1 28.552319  2.854172  5.709380
14    0  1 28.552524  2.854636  8.565226
15    0  1 28.552574  2.854738 11.420751
16    0  1 28.552524  2.854636 14.276276
17    0  1 28.552319  2.854172 17.132122
18    0  1 28.551916  2.852699 19.988804
19    0  1 28.551754  2.853575 22.842868
20    0  1 28.551810  2.853899 25.697311
21    0  1 28.552440  5.709913 28.552440
22    0  1 28.552319  5.709380  2.854172
23    0  1 28.552398  5.709366  5.709366
24    0  1 28.552516  5.709812  8.565114
25    0  1 28.552555  5.709964 11.420751
26    0  1 28.552516  5.709812 14.276389
27    0  1 28.552398  5.709366 17.132137
28    0  1 28.552319  5.709380 19.987331
29    0  1 28.552440  5.709913 22.842183
30    0  1 28.552489  5.710033 25.697311
31    0  1 28.552568  8.565389 28.552568
32    0  1 28.552524  8.565226  2.854636
33    0  1 28.552516  8.565114  5.709812
34    0  1 28.552536  8.565184  8.565184
35    0  1 28.552550  8.565275 11.420751
36    0  1 28.552536  8.565184 14.276318
37    0  1 28.552516  8.565114 17.131691
38    0  1 28.552524  8.565226 19.986867
39    0  1 28.552568  8.565389 22.842054
40    0  1 28.552593  8.565440 25.697311
41    0  1 28.552603 11.420751 28.552603
42    0  1 28.552574 11.420751  2.854738
43    0  1 28.552555 11.420751  5.709964
44    0  1 28.552550 11.420751  8.565275
45    0  1 28.552551 11.420751 11.420751
46    0  1 28.552550 11.420751 14.276228
47    0  1 28.552555 11.420751 17.131538
48    0  1 28.552574 11.420751 19.986765
49    0  1 28.552603 11.420751 22.842020
50    0  1 28.552619 11.420751 25.697311
51    0  1 28.552568 14.276113 28.552568
52    0  1 28.552524 14.276276  2.854636
53    0  1 28.552516 14.276389  5.709812
54    0  1 28.552536 14.276318  8.565184
55    0  1 28.552550 14.276228 11.420751
56    0  1 28.552536 14.276318 14.276318
57    0  1 28.552516 14.276389 17.131691
58    0  1 28.552524 14.276276 19.986867
59    0  1 28.552568 14.276113 22.842054
60    0  1 28.552593 14.276063 25.697311
61    0  1 28.552440 17.131589 28.552440
62    0  1 28.552319 17.132122  2.854172
63    0  1 28.552398 17.132137  5.709366
64    0  1 28.552516 17.131691  8.565114
65    0  1 28.552555 17.131538 11.420751
66    0  1 28.552516 17.131691 14.276389
67    0  1 28.552398 17.132137 17.132137
68    0  1 28.552319 17.132122 19.987331
69    0  1 28.552440 17.131589 22.842183
70    0  1 28.552489 17.131469 25.697311
71    0  1 28.551754 19.987928 28.551754
72    0  1 28.551916 19.988804  2.852699
73    0  1 28.552319 19.987331  5.709380
74    0  1 28.552524 19.986867  8.565226
75    0  1 28.552574 19.986765 11.420751
76    0  1 28.552524 19.986867 14.276276
77    0  1 28.552319 19.987331 17.132122
78    0  1 28.551915 19.988804 19.988804
79    0  1 28.551754 19.987928 22.842868
80    0  1 28.551810 19.987604 25.697311
81    0  1 28.536817 22.857806 28.536817
82    0  1 28.551754 22.842868  2.853575
83    0  1 28.552440 22.842183  5.709913
84    0  1 28.552568 22.842054  8.565389
85    0  1 28.552603 22.842020 11.420751
86    0  1 28.552568 22.842054 14.276113
87    0  1 28.552440 22.842183 17.131589
88    0  1 28.551754 22.842868 19.987928
89    0  1 28.536817 22.857806 22.857806
90    0  1 28.546071 22.848552 25.697311
91    0  1 28.546071 25.697311 28.546071
92    0  1 28.551810 25.697311  2.853899
93    0  1 28.552489 25.697311  5.710033
94    0  1 28.552593 25.697311  8.565440
95    0  1 28.552619 25.697311 11.420751
96    0  1 28.552593 25.697311 14.276063
97    0  1 28.552489 25.697311 17.131469
98    0  1 28.551810 25.697311 19.987604
99    0  1 28.546071 25.697311 22.848552
100   0  1  0.038450 25.697311 25.697311
101   0  1  2.853575 28.551754 28.551754
102   0  1  2.852699 28.551916  2.852699
103   0  1  2.854172 28.552319  5.709380
104   0  1  2.854636 28.552524  8.565226
105   0  1  2.854738 28.552574 11.420751
106   0  1  2.854636 28.552524 14.276276
107   0  1  2.854172 28.552319 17.132122
108   0  1  2.852699 28.551916 19.988804
109   0  1  2.853575 28.551754 22.842868
110   0  1  2.853899 28.551810 25.697311
111   0  1  2.852699  2.852699 28.551916
112   0  1  2.851892  2.851892  2.851892
113   0  1  2.854049  2.854049  5.709201
114   0  1  2.854582  2.854582  8.565156
115   0  1  2.854695  2.854695 11.420751
116   0  1  2.854582  2.854582 14.276347
117   0  1  2.854049  2.854049 17.132302
118   0  1  2.851892  2.851892 19.989611
119   0  1  2.852699  2.852699 22.842707
120   0  1  2.852712  2.852712 25.697311
121   0  1  2.854172  5.709380 28.552319
122   0  1  2.854049  5.709201  2.854049
123   0  1  2.854328  5.709351  5.709351
124   0  1  2.854584  5.709790  8.565100
125   0  1  2.854669  5.709937 11.420751
126   0  1  2.854584  5.709790 14.276403
127   0  1  2.854328  5.709351 17.132151
128   0  1  2.854049  5.709201 19.987453
129   0  1  2.854172  5.709380 22.842303
130   0  1  2.854222  5.709434 25.697311
131   0  1  2.854636  8.565226 28.552524
132   0  1  2.854582  8.565156  2.854582
133   0  1  2.854584  8.565100  5.709790
134   0  1  2.854638  8.565184  8.565184
135   0  1  2.854671  8.565270 11.420751
136   0  1  2.854638  8.565184 14.276319
137   0  1  2.854584  8.565100 17.131713
138   0  1  2.854582  8.565156 19.986921
139   0  1  2.854636  8.565226 22.842099
140   0  1  2.854664  8.565253 25.697311
141   0  1  2.854738 11.420751 28.552574
142   0  1  2.854695 11.420751  2.854695
143   0  1  2.854669 11.420751  5.709937
144   0  1  2.854671 11.420751  8.565270
145   0  1  2.854677 11.420751 11.420751
146   0  1  2.854671 11.420751 14.276233
147   0  1  2.854669 11.420751 17.131566
148   0  1  2.854695 11.420751 19.986807
149   0  1  2.854738 11.420751 22.842049
150   0  1  2.854758 11.420751 25.697311
151   0  1  2.854636 14.276276 28.552524
152   0  1  2.854582 14.276347  2.854582
153   0  1  2.854584 14.276403  5.709790
154   0  1  2.854638 14.276319  8.565184
155   0  1  2.854671 14.276233 11.420751
156   0  1  2.854638 14.276319 14.276319
157   0  1  2.854584 14.276403 17.131713
158   0  1  2.854582 14.276347 19.986921
159   0  1  2.854636 14.276276 22.842099
160   0  1  2.854664 14.276250 25.697311
161   0  1  2.854172 17.132122 28.552319
162   0  1  2.854049 17.132302  2.854049
163   0  1  2.854328 17.132151  5.709351
164   0  1  2.854584 17.131713  8.565100
165   0  1  2.854669 17.131566 11.420751
166   0  1  2.854584 17.131713 14.276403
167   0  1  2.854328 17.132151 17.132151
168   0  1  2.854049 17.132302 19.987453
169   0  1  2.854172 17.132122 22.842303
170   0  1  2.854222 17.132068 25.697311
171   0  1  2.852699 19.988804 28.551916
172   0  1  2.851892 19.989611  2.851892
173   0  1  2.854049 19.987453  5.709201
174   0  1  2.854582 19.986921  8.565156
175   0  1  2.854695 19.986807 11.420751
176   0  1  2.854582 19.986921 14.276347
177   0  1  2.854049 19.987453 17.132302
178   0  1  2.851892 19.989611 19.989611
179   0  1  2.852699 19.988804 22.842707
180   0  1  2.852712 19.988790 25.697311
181   0  1  2.853575 22.842868 28.551754
182   0  1  2.852699 22.842707  2.852699
183   0  1  2.854172 22.842303  5.709380
184   0  1  2.854636 22.842099  8.565226
185   0  1  2.854738 22.842049 11.420751
186   0  1  2.854636 22.842099 14.276276
187   0  1  2.854172 22.842303 17.132122
188   0  1  2.852699 22.842707 19.988804
189   0  1  2.853575 22.842868 22.842868
190   0  1  2.853899 22.842813 25.697311
191   0  1  2.853899 25.697311 28.551810
192   0  1  2.852712 25.697311  2.852712
193   0  1  2.854222 25.697311  5.709434
194   0  1  2.854664 25.697311  8.565253
195   0  1  2.854758 25.697311 11.420751
196   0  1  2.854664 25.697311 14.276250
197   0  1  2.854222 25.697311 17.132068
198   0  1  2.852712 25.697311 19.988790
199   0  1  2.853899 25.697311 22.842813
200   0  1  2.857236 25.697311 25.697311
201   0  1  5.709913 28.552440 28.552440
202   0  1  5.709380 28.552319  2.854172
203   0  1  5.709366 28.552398  5.709366
204   0  1  5.709812 28.552516  8.565114
205   0  1  5.709964 28.552555 11.420751
206   0  1  5.709812 28.552516 14.276389
207   0  1  5.709366 28.552398 17.132137
208   0  1  5.709380 28.552319 19.987331
209   0  1  5.709913 28.552440 22.842183
210   0  1  5.710033 28.552489 25.697311
211   0  1  5.709380  2.854172 28.552319
212   0  1  5.709201  2.854049  2.854049
213   0  1  5.709351  2.854328  5.709351
214   0  1  5.709790  2.854584  8.565100
215   0  1  5.709937  2.854669 11.420751
216   0  1  5.709790  2.854584 14.276403
217   0  1  5.709351  2.854328 17.132151
218   0  1  5.709201  2.854049 19.987453
219   0  1  5.709380  2.854172 22.842303
220   0  1  5.709434  2.854222 25.697311
221   0  1  5.709366  5.709366 28.552398
222   0  1  5.709351  5.709351  2.854328
223   0  1  5.709375  5.709375  5.709375
224   0  1  5.709787  5.709787  8.565098
225   0  1  5.709918  5.709918 11.420751
226   0  1  5.709787  5.709787 14.276405
227   0  1  5.709375  5.709375 17.132128
228   0  1  5.709351  5.709351 19.987175
229   0  1  5.709366  5.709366 22.842225
230   0  1  5.709375  5.709375 25.697311
231   0  1  5.709812  8.565114 28.552516
232   0  1  5.709790  8.565100  2.854584
233   0  1  5.709787  8.565098  5.709787
234   0  1  5.709884  8.565194  8.565194
235   0  1  5.709937  8.565269 11.420751
236   0  1  5.709884  8.565194 14.276309
237   0  1  5.709787  8.565098 17.131715
238   0  1  5.709790  8.565100 19.986919
239   0  1  5.709812  8.565114 22.842107
240   0  1  5.709823  8.565119 25.697311
241   0  1  5.709964 11.420751 28.552555
242   0  1  5.709937 11.420751  2.854669
243   0  1  5.709918 11.420751  5.709918
244   0  1  5.709937 11.420751  8.565269
245   0  1  5.709953 11.420751 11.420751
246   0  1  5.709937 11.420751 14.276234
247   0  1  5.709918 11.420751 17.131584
248   0  1  5.709937 11.420751 19.986833
249   0  1  5.709964 11.420751 22.842067
250   0  1  5.709976 11.420751 25.697311
251   0  1  5.709812 14.276389 28.552516
252   0  1  5.709790 14.276403  2.854584
253   0  1  5.709787 14.276405  5.709787
254   0  1  5.709884 14.276309  8.565194
255   0  1  5.709937 14.276234 11.420751
256   0  1  5.709884 14.276309 14.276309
257   0  1  5.709787 14.276405 17.131715
258   0  1  5.709790 14.276403 19.986919
259   0  1  5.709812 14.276389 22.842107
260   0  1  5.709823 14.276383 25.697311
261   0  1  5.709366 17.132137 28.552398
262   0  1  5.709351 17.132151  2.854328
263   0  1  5.709375 17.132128  5.709375
264   0  1  5.709787 17.131715  8.565098
265   0  1  5.709918 17.131584 11.420751
266   0  1  5.709787 17.131715 14.276405
267   0  1  5.709375 17.132128 17.132128
268   0  1  5.709351 17.132151 19.987174
269   0  1  5.709366 17.132137 22.842225
270   0  1  5.709375 17.132128 25.697311
271   0  1  5.709380 19.987331 28.552319
272   0  1  5.709201 19.987453  2.854049
273   0  1  5.709351 19.987175  5.709351
274   0  1  5.709790 19.986919  8.565100
275   0  1  5.709937 19.986833 11.420751
276   0  1  5.709790 19.986919 14.276403
277   0  1  5.709351 19.987174 17.132151
278   0  1  5.709201 19.987453 19.987453
279   0  1  5.709380 19.987331 22.842303
280   0  1  5.709434 19.987281 25.697311
281   0  1  5.709913 22.842183 28.552440
282   0  1  5.709380 22.842303  2.854172
283   0  1  5.709366 22.842225  5.709366
284   0  1  5.709812 22.842107  8.565114
285   0  1  5.709964 22.842067 11.420751
286   0  1  5.709812 22.842107 14.276389
287   0  1  5.709366 22.842225 17.132137
288   0  1  5.709380 22.842303 19.987331
289   0  1  5.709913 22.842183 22.842183
290   0  1  5.710033 22.842134 25.697311
291   0  1  5.710033 25.697311 28.552489
292   0  1  5.709434 25.697311  2.854222
293   0  1  5.709375 25.697311  5.709375
294   0  1  5.709823 25.697311  8.565119
295   0  1  5.709976 25.697311 11.420751
296   0  1  5.709823 25.697311 14.276383
297   0  1  5.709375 25.697311 17.132128
298   0  1  5.709434 25.697311 19.987281
299   0  1  5.710033 25.697311 22.842134
300   0  1  5.710437 25.697311 25.697311
301   0  1  8.565389 28.552568 28.552568
302   0  1  8.565226 28.552524  2.854636
303   0  1  8.565114 28.552516  5.709812
304   0  1  8.565184 28.552536  8.565184
305   0  1  8.565275 28.552550 11.420751
306   0  1  8.565184 28.552536 14.276318
307   0  1  8.565114 28.552516 17.131691
308   0  1  8.565226 28.552524 19.986867
309   0  1  8.565389 28.552568 22.842054
310   0  1  8.565440 28.552593 25.697311
311   0  1  8.565226  2.854636 28.552524
312   0  1  8.565156  2.854582  2.854582
313   0  1  8.565100  2.854584  5.709790
314   0  1  8.565184  2.854638  8.565184
315   0  1  8.565270  2.854671 11.420751
316   0  1  8.565184  2.854638 14.276319
317   0  1  8.565100  2.854584 17.131713
318   0  1  8.565156  2.854582 19.986921
319   0  1  8.565226  2.854636 22.842099
320   0  1  8.565253  2.854664 25.697311
321   0  1  8.565114  5.709812 28.552516
322   0  1  8.565100  5.709790  2.854584
323   0  1  8.565098  5.709787  5.709787
324   0  1  8.565194  5.709884  8.565194
325   0  1  8.565269  5.709937 11.420751
326   0  1  8.565194  5.709884 14.276309
327   0  1  8.565098  5.709787 17.131715
328   0  1  8.565100  5.709790 19.986919
329   0  1  8.565114  5.709812 22.842107
330   0  1  8.565119  5.709823 25.697311
331   0  1  8.565184  8.565184 28.552536
332   0  1  8.565184  8.565184  2.854638
333   0  1  8.565194  8.565194  5.709884
334   0  1  8.565231  8.565231  8.565231
335   0  1  8.565281  8.565281 11.420751
336   0  1  8.565231  8.565231 14.276272
337   0  1  8.565194  8.565194 17.131618
338   0  1  8.565184  8.565184 19.986865
339   0  1  8.565184  8.565184 22.842087
340   0  1  8.565185  8.565185 25.697311
341   0  1  8.565275 11.420751 28.552550
342   0  1  8.565270 11.420751  2.854671
343   0  1  8.565269 11.420751  5.709937
344   0  1  8.565281 11.420751  8.565281
345   0  1  8.565302 11.420751 11.420751
346   0  1  8.565281 11.420751 14.276221
347   0  1  8.565269 11.420751 17.131565
348   0  1  8.565270 11.420751 19.986831
349   0  1  8.565275 11.420751 22.842073
350   0  1  8.565277 11.420751 25.697311
351   0  1  8.565184 14.276318 28.552536
352   0  1  8.565184 14.276319  2.854638
353   0  1  8.565194 14.276309  5.709884
354   0  1  8.565231 14.276272  8.565231
355   0  1  8.565281 14.276221 11.420751
356   0  1  8.565231 14.276272 14.276272
357   0  1  8.565194 14.276309 17.131618
358   0  1  8.565184 14.276319 19.986865
359   0  1  8.565184 14.276318 22.842087
360   0  1  8.565185 14.276317 25.697311
361   0  1  8.565114 17.131691 28.552516
362   0  1  8.565100 17.131713  2.854584
363   0  1  8.565098 17.131715  5.709787
364   0  1  8.565194 17.131618  8.565194
365   0  1  8.565269 17.131565 11.420751
366   0  1  8.565194 17.131618 14.276309
367   0  1  8.565098 17.131715 17.131715
368   0  1  8.565100 17.131713 19.986919
369   0  1  8.565114 17.131691 22.842107
370   0  1  8.565119 17.131680 25.697311
371   0  1  8.565226 19.986867 28.552524
372   0  1  8.565156 19.986921  2.854582
373   0  1  8.565100 19.986919  5.709790
374   0  1  8.565184 19.986865  8.565184
375   0  1  8.565270 19.986831 11.420751
376   0  1  8.565184 19.986865 14.276319
377   0  1  8.565100 19.986919 17.131713
378   0  1  8.565156 19.986921 19.986921
379   0  1  8.565226 19.986867 22.842099
380   0  1  8.565253 19.986839 25.697311
381   0  1  8.565389 22.842054 28.552568
382   0  1  8.565226 22.842099  2.854636
383   0  1  8.565114 22.842107  5.709812
384   0  1  8.565184 22.842087  8.565184
385   0  1  8.565275 22.842073 11.420751
386   0  1  8.565184 22.842087 14.276318
387   0  1  8.565114 22.842107 17.131691
388   0  1  8.565226 22.842099 19.986867
389   0  1  8.565389 22.842054 22.842054
390   0  1  8.565440 22.842029 25.697311
391   0  1  8.565440 25.697311 28.552593
392   0  1  8.565253 25.697311  2.854664
393   0  1  8.565119 25.697311  5.709823
394   0  1  8.565185 25.697311  8.565185
395   0  1  8.565277 25.697311 11.420751
396   0  1  8.565185 25.697311 14.276317
397   0  1  8.565119 25.697311 17.131680
398   0  1  8.565253 25.697311 19.986839
399   0  1  8.565440 25.697311 22.842029
400   0  1  8.565524 25.697311 25.697311
401   0  1 11.420751 28.552603 28.552603
402   0  1 11.420751 28.552574  2.854738
403   0  1 11.420751 28.552555  5.709964
404   0  1 11.420751 28.552550  8.565275
405   0  1 11.420751 28.552551 11.420751
406   0  1 11.420751 28.552550 14.276228
407   0  1 11.420751 28.552555 17.131538
408   0  1 11.420751 28.552574 19.986765
409   0  1 11.420751 28.552603 22.842020
410   0  1 11.420751 28.552619 25.697311
411   0  1 11.420751  2.854738 28.552574
412   0  1 11.420751  2.854695  2.854695
413   0  1 11.420751  2.854669  5.709937
414   0  1 11.420751  2.854671  8.565270
415   0  1 11.420751  2.854677 11.420751
416   0  1 11.420751  2.854671 14.276233
417   0  1 11.420751  2.854669 17.131566
418   0  1 11.420751  2.854695 19.986807
419   0  1 11.420751  2.854738 22.842049
420   0  1 11.420751  2.854758 25.697311
421   0  1 11.420751  5.709964 28.552555
422   0  1 11.420751  5.709937  2.854669
423   0  1 11.420751  5.709918  5.709918
424   0  1 11.420751  5.709937  8.565269
425   0  1 11.420751  5.709953 11.420751
426   0  1 11.420751  5.709937 14.276234
427   0  1 11.420751  5.709918 17.131584
428   0  1 11.420751  5.709937 19.986833
429   0  1 11.420751  5.709964 22.842067
430   0  1 11.420751  5.709976 25.697311
431   0  1 11.420751  8.565275 28.552550
432   0  1 11.420751  8.565270  2.854671
433   0  1 11.420751  8.565269  5.709937
434   0  1 11.420751  8.565281  8.565281
435   0  1 11.420751  8.565302 11.420751
436   0  1 11.420751  8.565281 14.276221
437   0  1 11.420751  8.565269 17.131565
438   0  1 11.420751  8.565270 19.986831
439   0  1 11.420751  8.565275 22.842073
440   0  1 11.420751  8.565277 25.697311
441   0  1 11.420751 11.420751 28.552551
442   0  1 11.420751 11.420751  2.854677
443   0  1 11.420751 11.420751  5.709953
444   0  1 11.420751 11.420751  8.565302
445   0  1 11.420751 11.420751 11.420751
446   0  1 11.420751 11.420751 14.276201
447   0  1 11.420751 11.420751 17.131549
448   0  1 11.420751 11.420751 19.986825
449   0  1 11.420751 11.420751 22.842072
450   0  1 11.420751 11.420751 25.697311
451   0  1 11.420751 14.276228 28.552550
452   0  1 11.420751 14.276233  2.854671
453   0  1 11.420751 14.276234  5.709937
454   0  1 11.420751 14.276221  8.565281
455   0  1 11.420751 14.276201 11.420751
456   0  1 11.420751 14.276221 14.276221
457   0  1 11.420751 14.276234 17.131565
458   0  1 11.420751 14.276233 19.986831
459   0  1 11.420751 14.276228 22.842073
460   0  1 11.420751 14.276226 25.697311
461   0  1 11.420751 17.131538 28.552555
462   0  1 11.420751 17.131566  2.854669
463   0  1 11.420751 17.131584  5.709918
464   0  1 11.420751 17.131565  8.565269
465   0  1 11.420751 17.131549 11.420751
466   0  1 11.420751 17.131565 14.276234
467   0  1 11.420751 17.131584 17.131584
468   0  1 11.420751 17.131566 19.986833
469   0  1 11.420751 17.131538 22.842067
470   0  1 11.420751 17.131527 25.697311
471   0  1 11.420751 19.986765 28.552574
472   0  1 11.420751 19.986807  2.854695
473   0  1 11.420751 19.986833  5.709937
474   0  1 11.420751 19.986831  8.565270
475   0  1 11.420751 19.986825 11.420751
476   0  1 11.420751 19.986831 14.276233
477   0  1 11.420751 19.986833 17.131566
478   0  1 11.420751 19.986807 19.986807
479   0  1 11.420751 19.986765 22.842049
480   0  1 11.420751 19.986744 25.697311
481   0  1 11.420751 22.842020 28.552603
482   0  1 11.420751 22.842049  2.854738
483   0  1 11.420751 22.842067  5.709964
484   0  1 11.420751 22.842073  8.565275
485   0  1 11.420751 22.842072 11.420751
486   0  1 11.420751 22.842073 14.276228
487   0  1 11.420751 22.842067 17.131538
488   0  1 11.420751 22.842049 19.986765
489   0  1 11.420751 22.842020 22.842020
490   0  1 11.420751 22.842004 25.697311
491   0  1 11.420751 25.697311 28.552619
492   0  1 11.420751 25.697311  2.854758
493   0  1 11.420751 25.697311  5.709976
494   0  1 11.420751 25.697311  8.565277
495   0  1 11.420751 25.697311 11.420751
496   0  1 11.420751 25.697311 14.276226
497   0  1 11.420751 25.697311 17.131527
498   0  1 11.420751 25.697311 19.986744
499   0  1 11.420751 25.697311 22.842004
500   0  1 11.420751 25.697311 25.697311
501   0  1 14.276113 28.552568 28.552568
502   0  1 14.276276 28.552524  2.854636
503   0  1 14.276389 28.552516  5.709812
504   0  1 14.276318 28.552536  8.565184
505   0  1 14.276228 28.552550 11.420751
506   0  1 14.276318 28.552536 14.276318
507   0  1 14.276389 28.552516 17.131691
508   0  1 14.276276 28.552524 19.986867
509   0  1 14.276113 28.552568 22.842054
510   0  1 14.276063 28.552593 25.697311
511   0  1 14.276276  2.854636 28.552524
512   0  1 14.276347  2.854582  2.854582
513   0  1 14.276403  2.854584  5.709790
514   0  1 14.276319  2.854638  8.565184
515   0  1 14.276233  2.854671 11.420751
516   0  1 14.276319  2.854638 14.276319
517   0  1 14.276403  2.854584 17.131713
518   0  1 14.276347  2.854582 19.986921
519   0  1 14.276276  2.854636 22.842099
520   0  1 14.276250  2.854664 25.697311
521   0  1 14.276389  5.709812 28.552516
522   0  1 14.276403  5.709790  2.854584
523   0  1 14.276405  5.709787  5.709787
524   0  1 14.276309  5.709884  8.565194
525   0  1 14.276234  5.709937 11.420751
526   0  1 14.276309  5.709884 14.276309
527   0  1 14.276405  5.709787 17.131715
528   0  1 14.276403  5.709790 19.986919
529   0  1 14.276389  5.709812 22.842107
530   0  1 14.276383  5.709823 25.697311
531   0  1 14.276318  8.565184 28.552536
532   0  1 14.276319  8.565184  2.854638
533   0  1 14.276309  8.565194  5.709884
534   0  1 14.276272  8.565231  8.565231
535   0  1 14.276221  8.565281 11.420751
536   0  1 14.276272  8.565231 14.276272
537   0  1 14.276309  8.565194 17.131618
538   0  1 14.276319  8.565184 19.986865
539   0  1 14.276318  8.565184 22.842087
540   0  1 14.276317  8.565185 25.697311
541   0  1 14.276228 11.420751 28.552550
542   0  1 14.276233 11.420751  2.854671
543   0  1 14.276234 11.420751  5.709937
544   0  1 14.276221 11.420751  8.565281
545   0  1 14.276201 11.420751 11.420751
546   0  1 14.276221 11.420751 14.276221
547   0  1 14.276234 11.420751 17.131565
548   0  1 14.276233 11.420751 19.986831
549   0  1 14.276228 11.420751 22.842073
550   0  1 14.276226 11.420751 25.697311
551   0  1 14.276318 14.276318 28.552536
552   0  1 14.276319 14.276319  2.854638
553   0  1 14.276309 14.276309  5.709884
554   0  1 14.276272 14.276272  8.565231
555   0  1 14.276221 14.276221 11.420751
556   0  1 14.276272 14.276272 14.276272
557   0  1 14.276309 14.276309 17.131618
558   0  1 14.276319 14.276319 19.986865
559   0  1 14.276318 14.276318 22.842087
560   0  1 14.276317 14.276317 25.697311
561   0  1 14.276389 17.131691 28.552516
562   0  1 14.276403 17.131713  2.854584
563   0  1 14.276405 17.131715  5.709787
564   0  1 14.276309 17.131618  8.565194
565   0  1 14.276234 17.131565 11.420751
566   0  1 14.276309 17.131618 14.276309
567   0  1 14.276405 17.131715 17.131715
568   0  1 14.276402 17.131713 19.986919
569   0  1 14.276389 17.131690 22.842107
570   0  1 14.276383 17.131680 25.697311
571   0  1 14.276276 19.986867 28.552524
572   0  1 14.276347 19.986921  2.854582
573   0  1 14.276403 19.986919  5.709790
574   0  1 14.276319 19.986865  8.565184
575   0  1 14.276233 19.986831 11.420751
576   0  1 14.276319 19.986865 14.276319
577   0  1 14.276402 19.986919 17.131713
578   0  1 14.276347 19.986921 19.986921
579   0  1 14.276276 19.986867 22.842099
580   0  1 14.276250 19.986839 25.697311
581   0  1 14.276113 22.842054 28.552568
582   0  1 14.276276 22.842099  2.854636
583   0  1 14.276389 22.842107  5.709812
584   0  1 14.276318 22.842087  8.565184
585   0  1 14.276228 22.842073 11.420751
586   0  1 14.276318 22.842087 14.276318
587   0  1 14.276389 22.842107 17.131690
588   0  1 14.276276 22.842099 19.986867
589   0  1 14.276113 22.842054 22.842054
590   0  1 14.276063 22.842029 25.697311
591   0  1 14.276063 25.697311 28.552593
592   0  1 14.276250 25.697311  2.854664
593   0  1 14.276383 25.697311  5.709823
594   0  1 14.276317 25.697311  8.565185
595   0  1 14.276226 25.697311 11.420751
596   0  1 14.276317 25.697311 14.276317
597   0  1 14.276383 25.697311 17.131680
598   0  1 14.276250 25.697311 19.986839
599   0  1 14.276063 25.697311 22.842029
600   0  1 14.275979 25.697311 25.697311
601   0  1 17.131589 28.552440 28.552440
602   0  1 17.132122 28.552319  2.854172
603   0  1 17.132137 28.552398  5.709366
604   0  1 17.131691 28.552516  8.565114
605   0  1 17.131538 28.552555 11.420751
606   0  1 17.131691 28.552516 14.276389
607   0  1 17.132137 28.552398 17.132137
608   0  1 17.132122 28.552319 19.987331
609   0  1 17.131589 28.552440 22.842183
610   0  1 17.131469 28.552489 25.697311
611   0  1 17.132122  2.854172 28.552319
612   0  1 17.132302  2.854049  2.854049
613   0  1 17.132151  2.854328  5.709351
614   0  1 17.131713  2.854584  8.565100
615   0  1 17.131566  2.854669 11.420751
616   0  1 17.131713  2.854584 14.276403
617   0  1 17.132151  2.854328 17.132151
618   0  1 17.132302  2.854049 19.987453
619   0  1 17.132122  2.854172 22.842303
620   0  1 17.132068  2.854222 25.697311
621   0  1 17.132137  5.709366 28.552398
622   0  1 17.132151  5.709351  2.854328
623   0  1 17.132128  5.709375  5.709375
624   0  1 17.131715  5.709787  8.565098
625   0  1 17.131584  5.709918 11.420751
626   0  1 17.131715  5.709787 14.276405
627   0  1 17.132128  5.709375 17.132128
628   0  1 17.132151  5.709351 19.987174
629   0  1 17.132137  5.709366 22.842225
630   0  1 17.132128  5.709375 25.697311
631   0  1 17.131691  8.565114 28.552516
632   0  1 17.131713  8.565100  2.854584
633   0  1 17.131715  8.565098  5.709787
634   0  1 17.131618  8.565194  8.565194
635   0  1 17.131565  8.565269 11.420751
636   0  1 17.131618  8.565194 14.276309
637   0  1 17.131715  8.565098 17.131715
638   0  1 17.131713  8.565100 19.986919
639   0  1 17.131691  8.565114 22.842107
640   0  1 17.131680  8.565119 25.697311
641   0  1 17.131538 11.420751 28.552555
642   0  1 17.131566 11.420751  2.854669
643   0  1 17.131584 11.420751  5.709918
644   0  1 17.131565 11.420751  8.565269
645   0  1 17.131549 11.420751 11.420751
646   0  1 17.131565 11.420751 14.276234
647   0  1 17.131584 11.420751 17.131584
648   0  1 17.131566 11.420751 19.986833
649   0  1 17.131538 11.420751 22.842067
650   0  1 17.131527 11.420751 25.697311
651   0  1 17.131691 14.276389 28.552516
652   0  1 17.131713 14.276403  2.854584
653   0  1 17.131715 14.276405  5.709787
654   0  1 17.131618 14.276309  8.565194
655   0  1 17.131565 14.276234 11.420751
656   0  1 17.131618 14.276309 14.276309
657   0  1 17.131715 14.276405 17.131715
658   0  1 17.131713 14.276402 19.986919
659   0  1 17.131690 14.276389 22.842107
660   0  1 17.131680 14.276383 25.697311
661   0  1 17.132137 17.132137 28.552398
662   0  1 17.132151 17.132151  2.854328
663   0  1 17.132128 17.132128  5.709375
664   0  1 17.131715 17.131715  8.565098
665   0  1 17.131584 17.131584 11.420751
666   0  1 17.131715 17.131715 14.276405
667   0  1 17.132128 17.132128 17.132128
668   0  1 17.132151 17.132151 19.987174
669   0  1 17.132137 17.132137 22.842225
670   0  1 17.132128 17.132128 25.697311
671   0  1 17.132122 19.987331 28.552319
672   0  1 17.132302 19.987453  2.854049
673   0  1 17.132151 19.987174  5.709351
674   0  1 17.131713 19.986919  8.565100
675   0  1 17.131566 19.986833 11.420751
676   0  1 17.131713 19.986919 14.276402
677   0  1 17.132151 19.987174 17.132151
678   0  1 17.132302 19.987453 19.987453
679   0  1 17.132122 19.987331 22.842303
680   0  1 17.132068 19.987281 25.697311
681   0  1 17.131589 22.842183 28.552440
682   0  1 17.132122 22.842303  2.854172
683   0  1 17.132137 22.842225  5.709366
684   0  1 17.131691 22.842107  8.565114
685   0  1 17.131538 22.842067 11.420751
686   0  1 17.131690 22.842107 14.276389
687   0  1 17.132137 22.842225 17.132137
688   0  1 17.132122 22.842303 19.987331
689   0  1 17.131589 22.842183 22.842183
690   0  1 17.131469 22.842133 25.697311
691   0  1 17.131469 25.697311 28.552489
692   0  1 17.132068 25.697311  2.854222
693   0  1 17.132128 25.697311  5.709375
694   0  1 17.131680 25.697311  8.565119
695   0  1 17.131527 25.697311 11.420751
696   0  1 17.131680 25.697311 14.276383
697   0  1 17.132128 25.697311 17.132128
698   0  1 17.132068 25.697311 19.987281
699   0  1 17.131469 25.697311 22.842133
700   0  1 17.131065 25.697311 25.697311
701   0  1 19.987928 28.551754 28.551754
702   0  1 19.988804 28.551916  2.852699
703   0  1 19.987331 28.552319  5.709380
704   0  1 19.986867 28.552524  8.565226
705   0  1 19.986765 28.552574 11.420751
706   0  1 19.986867 28.552524 14.276276
707   0  1 19.987331 28.552319 17.132122
708   0  1 19.988804 28.551915 19.988804
709   0  1 19.987928 28.551754 22.842868
710   0  1 19.987604 28.551810 25.697311
711   0  1 19.988804  2.852699 28.551916
712   0  1 19.989611  2.851892  2.851892
713   0  1 19.987453  2.854049  5.709201
714   0  1 19.986921  2.854582  8.565156
715   0  1 19.986807  2.854695 11.420751
716   0  1 19.986921  2.854582 14.276347
717   0  1 19.987453  2.854049 17.132302
718   0  1 19.989611  2.851892 19.989611
719   0  1 19.988804  2.852699 22.842707
720   0  1 19.988790  2.852712 25.697311
721   0  1 19.987331  5.709380 28.552319
722   0  1 19.987453  5.709201  2.854049
723   0  1 19.987175  5.709351  5.709351
724   0  1 19.986919  5.709790  8.565100
725   0  1 19.986833  5.709937 11.420751