Generated by pymatgen.io.lammps.data.LammpsData

1999  atoms

   2  atom types

0.000000 28.553120  xlo xhi
0.000000 28.553120  ylo yhi
0.000000 28.553120  zlo zhi
0.000000 0.000000 0.000000  xy xz yz

Masses

1  55.847000
2  30.973762

Atoms

1     0  1  0.038475  0.000470  0.000470
2     0  1 28.546096  0.000470  2.849230
3     0  1 28.551834  0.000470  5.710177
4     0  1 28.552514  0.000470  8.566312
5     0  1 28.552618  0.000470 11.421718
6     0  1 28.552643  0.000470 14.277030
7     0  1 28.552618  0.000470 17.132341
8     0  1 28.552514  0.000470 19.987748
9     0  1 28.551834  0.000470 22.843882
10    0  1 28.546096  0.000470 25.704830
11    0  1 28.546096  2.849230  0.000470
12    0  1 28.536842  2.839976  2.839976
13    0  1 28.551779  2.854913  5.709853
14    0  1 28.552465  2.855598  8.566192
15    0  1 28.552593  2.855727 11.421668
16    0  1 28.552628  2.855761 14.277030
17    0  1 28.552593  2.855727 17.132392
18    0  1 28.552465  2.855598 19.987868
19    0  1 28.551779  2.854913 22.844206
20    0  1 28.536842  2.839976 25.714084
21    0  1 28.551834  5.710177  0.000470
22    0  1 28.551779  5.709853  2.854913
23    0  1 28.551940  5.708978  5.708978
24    0  1 28.552344  5.710450  8.565659
25    0  1 28.552548  5.710914 11.421505
26    0  1 28.552599  5.711016 14.277030
27    0  1 28.552548  5.710914 17.132555
28    0  1 28.552344  5.710450 19.988401
29    0  1 28.551940  5.708977 22.845082
30    0  1 28.551779  5.709853 25.699147
31    0  1 28.552514  8.566312  0.000470
32    0  1 28.552465  8.566192  2.855598
33    0  1 28.552344  8.565659  5.710450
34    0  1 28.552423  8.565644  8.565644
35    0  1 28.552541  8.566091 11.421392
36    0  1 28.552580  8.566243 14.277030
37    0  1 28.552541  8.566091 17.132668
38    0  1 28.552423  8.565644 19.988416
39    0  1 28.552344  8.565659 22.843609
40    0  1 28.552465  8.566192 25.698461
41    0  1 28.552618 11.421718  0.000470
42    0  1 28.552593 11.421668  2.855727
43    0  1 28.552548 11.421505  5.710914
44    0  1 28.552541 11.421392  8.566091
45    0  1 28.552560 11.421463 11.421463
46    0  1 28.552575 11.421553 14.277030
47    0  1 28.552560 11.421463 17.132597
48    0  1 28.552541 11.421392 19.987969
49    0  1 28.552548 11.421505 22.843145
50    0  1 28.552593 11.421668 25.698333
51    0  1 28.552643 14.277030  0.000470
52    0  1 28.552628 14.277030  2.855761
53    0  1 28.552599 14.277030  5.711016
54    0  1 28.552580 14.277030  8.566243
55    0  1 28.552575 14.277030 11.421553
56    0  1 28.552576 14.277030 14.277030
57    0  1 28.552575 14.277030 17.132506
58    0  1 28.552580 14.277030 19.987817
59    0  1 28.552599 14.277030 22.843043
60    0  1 28.552628 14.277030 25.698298
61    0  1 28.552618 17.132341  0.000470
62    0  1 28.552593 17.132392  2.855727
63    0  1 28.552548 17.132555  5.710914
64    0  1 28.552541 17.132668  8.566091
65    0  1 28.552560 17.132597 11.421463
66    0  1 28.552575 17.132506 14.277030
67    0  1 28.552560 17.132597 17.132597
68    0  1 28.552541 17.132668 19.987969
69    0  1 28.552548 17.132555 22.843145
70    0  1 28.552593 17.132392 25.698333
71    0  1 28.552514 19.987748  0.000470
72    0  1 28.552465 19.987868  2.855598
73    0  1 28.552344 19.988401  5.710450
74    0  1 28.552423 19.988416  8.565644
75    0  1 28.552541 19.987969 11.421392
76    0  1 28.552580 19.987817 14.277030
77    0  1 28.552541 19.987969 17.132668
78    0  1 28.552423 19.988416 19.988416
79    0  1 28.552344 19.988401 22.843609
80    0  1 28.552465 19.987868 25.698461
81    0  1 28.551834 22.843882  0.000470
82    0  1 28.551779 22.844206  2.854913
83    0  1 28.551940 22.845082  5.708977
84    0  1 28.552344 22.843609  8.565659
85    0  1 28.552548 22.843145 11.421505
86    0  1 28.552599 22.843043 14.277030
87    0  1 28.552548 22.843145 17.132555
88    0  1 28.552344 22.843609 19.988401
89    0  1 28.551940 22.845082 22.845082
90    0  1 28.551779 22.844206 25.699147
91    0  1 28.546096 25.704830  0.000470
92    0  1 28.536842 25.714084  2.839976
93    0  1 28.551779 25.699147  5.709853
94    0  1 28.552465 25.698461  8.566192
95    0  1 28.552593 25.698333 11.421668
96    0  1 28.552628 25.698298 14.277030
97    0  1 28.552593 25.698333 17.132392
98    0  1 28.552465 25.698461 19.987868
99    0  1 28.551779 25.699147 22.844206
100   0  1 28.536842 25.714084 25.714084
101   0  1  2.857261  0.000470  0.000470
102   0  1  2.853924  0.000470  2.854968
103   0  1  2.852737  0.000470  5.708991
104   0  1  2.854247  0.000470  8.565713
105   0  1  2.854689  0.000470 11.421531
106   0  1  2.854783  0.000470 14.277030
107   0  1  2.854689  0.000470 17.132528
108   0  1  2.854247  0.000470 19.988347
109   0  1  2.852737  0.000470 22.845069
110   0  1  2.853924  0.000470 25.699091
111   0  1  2.853924  2.854968  0.000470
112   0  1  2.853600  2.854913  2.854913
113   0  1  2.852724  2.855074  5.708977
114   0  1  2.854197  2.855478  8.565659
115   0  1  2.854661  2.855682 11.421505
116   0  1  2.854763  2.855732 14.277030
117   0  1  2.854661  2.855682 17.132555
118   0  1  2.854197  2.855478 19.988401
119   0  1  2.852724  2.855074 22.845082
120   0  1  2.853600  2.854913 25.699147
121   0  1  2.852737  5.708991  0.000470
122   0  1  2.852724  5.708977  2.855074
123   0  1  2.851917  5.708170  5.708170
124   0  1  2.854074  5.710328  8.565479
125   0  1  2.854607  5.710860 11.421434
126   0  1  2.854720  5.710974 14.277030
127   0  1  2.854607  5.710860 17.132625
128   0  1  2.854074  5.710328 19.988580
129   0  1  2.851917  5.708170 22.845889
130   0  1  2.852724  5.708977 25.698986
131   0  1  2.854247  8.565713  0.000470
132   0  1  2.854197  8.565659  2.855478
133   0  1  2.854074  8.565479  5.710328
134   0  1  2.854353  8.565630  8.565630
135   0  1  2.854609  8.566068 11.421379
136   0  1  2.854694  8.566216 14.277030
137   0  1  2.854609  8.566068 17.132681
138   0  1  2.854353  8.565630 19.988430
139   0  1  2.854074  8.565479 22.843732
140   0  1  2.854197  8.565659 25.698582
141   0  1  2.854689 11.421531  0.000470
142   0  1  2.854661 11.421505  2.855682
143   0  1  2.854607 11.421434  5.710860
144   0  1  2.854609 11.421379  8.566068
145   0  1  2.854663 11.421463 11.421463
146   0  1  2.854696 11.421548 14.277030
147   0  1  2.854663 11.421463 17.132597
148   0  1  2.854609 11.421379 19.987991
149   0  1  2.854607 11.421434 22.843199
150   0  1  2.854661 11.421505 25.698378
151   0  1  2.854783 14.277030  0.000470
152   0  1  2.854763 14.277030  2.855732
153   0  1  2.854720 14.277030  5.710974
154   0  1  2.854694 14.277030  8.566216
155   0  1  2.854696 14.277030 11.421548
156   0  1  2.854702 14.277030 14.277030
157   0  1  2.854696 14.277030 17.132511
158   0  1  2.854694 14.277030 19.987844
159   0  1  2.854720 14.277030 22.843086
160   0  1  2.854763 14.277030 25.698327
161   0  1  2.854689 17.132528  0.000470
162   0  1  2.854661 17.132555  2.855682
163   0  1  2.854607 17.132625  5.710860
164   0  1  2.854609 17.132681  8.566068
165   0  1  2.854663 17.132597 11.421463
166   0  1  2.854696 17.132511 14.277030
167   0  1  2.854663 17.132597 17.132597
168   0  1  2.854609 17.132681 19.987991
169   0  1  2.854607 17.132625 22.843199
170   0  1  2.854661 17.132555 25.698378
171   0  1  2.854247 19.988347  0.000470
172   0  1  2.854197 19.988401  2.855478
173   0  1  2.854074 19.988580  5.710328
174   0  1  2.854353 19.988430  8.565630
175   0  1  2.854609 19.987991 11.421379
176   0  1  2.854694 19.987844 14.277030
177   0  1  2.854609 19.987991 17.132681
178   0  1  2.854353 19.988430 19.988430
179   0  1  2.854074 19.988580 22.843732
180   0  1  2.854197 19.988401 25.698582
181   0  1  2.852737 22.845069  0.000470
182   0  1  2.852724 22.845082  2.855074
183   0  1  2.851917 22.845889  5.708170
184   0  1  2.854074 22.843732  8.565479
185   0  1  2.854607 22.843199 11.421434
186   0  1  2.854720 22.843086 14.277030
187   0  1  2.854607 22.843199 17.132625
188   0  1  2.854074 22.843732 19.988580
189   0  1  2.851917 22.845889 22.845889
190   0  1  2.852724 22.845082 25.698986
191   0  1  2.853924 25.699091  0.000470
192   0  1  2.853600 25.699147  2.854913
193   0  1  2.852724 25.698986  5.708977
194   0  1  2.854197 25.698582  8.565659
195   0  1  2.854661 25.698378 11.421505
196   0  1  2.854763 25.698327 14.277030
197   0  1  2.854661 25.698378 17.132555
198   0  1  2.854197 25.698582 19.988401
199   0  1  2.852724 25.698986 22.845082
200   0  1  2.853600 25.699147 25.699147
201   0  1  5.710462  0.000470  0.000470
202   0  1  5.710058  0.000470  2.855648
203   0  1  5.709459  0.000470  5.710500
204   0  1  5.709400  0.000470  8.565653
205   0  1  5.709848  0.000470 11.421398
206   0  1  5.710001  0.000470 14.277030
207   0  1  5.709848  0.000470 17.132662
208   0  1  5.709400  0.000470 19.988406
209   0  1  5.709459  0.000470 22.843559
210   0  1  5.710058  0.000470 25.698412
211   0  1  5.710058  2.855648  0.000470
212   0  1  5.709938  2.855598  2.855598
213   0  1  5.709405  2.855478  5.710450
214   0  1  5.709390  2.855557  8.565644
215   0  1  5.709837  2.855674 11.421392
216   0  1  5.709989  2.855714 14.277030
217   0  1  5.709837  2.855674 17.132668
218   0  1  5.709390  2.855557 19.988416
219   0  1  5.709405  2.855478 22.843609
220   0  1  5.709938  2.855598 25.698461
221   0  1  5.709459  5.710500  0.000470
222   0  1  5.709405  5.710450  2.855478
223   0  1  5.709226  5.710328  5.710328
224   0  1  5.709376  5.710607  8.565630
225   0  1  5.709814  5.710862 11.421379
226   0  1  5.709962  5.710948 14.277030
227   0  1  5.709814  5.710862 17.132681
228   0  1  5.709376  5.710607 19.988430
229   0  1  5.709226  5.710328 22.843732
230   0  1  5.709405  5.710450 25.698582
231   0  1  5.709400  8.565653  0.000470
232   0  1  5.709390  8.565644  2.855557
233   0  1  5.709376  8.565630  5.710607
234   0  1  5.709400  8.565654  8.565654
235   0  1  5.709812  8.566066 11.421376
236   0  1  5.709943  8.566197 14.277030
237   0  1  5.709812  8.566066 17.132683
238   0  1  5.709400  8.565654 19.988406
239   0  1  5.709376  8.565630 22.843453
240   0  1  5.709390  8.565644 25.698503
241   0  1  5.709848 11.421398  0.000470
242   0  1  5.709837 11.421392  2.855674
243   0  1  5.709814 11.421379  5.710862
244   0  1  5.709812 11.421376  8.566066
245   0  1  5.709909 11.421472 11.421472
246   0  1  5.709962 11.421548 14.277030
247   0  1  5.709909 11.421472 17.132587
248   0  1  5.709812 11.421376 19.987994
249   0  1  5.709814 11.421379 22.843197
250   0  1  5.709837 11.421392 25.698385
251   0  1  5.710001 14.277030  0.000470
252   0  1  5.709989 14.277030  2.855714
253   0  1  5.709962 14.277030  5.710948
254   0  1  5.709943 14.277030  8.566197
255   0  1  5.709962 14.277030 11.421548
256   0  1  5.709978 14.277030 14.277030
257   0  1  5.709962 14.277030 17.132512
258   0  1  5.709943 14.277030 19.987863
259   0  1  5.709962 14.277030 22.843112
260   0  1  5.709989 14.277030 25.698346
261   0  1  5.709848 17.132662  0.000470
262   0  1  5.709837 17.132668  2.855674
263   0  1  5.709814 17.132681  5.710862
264   0  1  5.709812 17.132683  8.566066
265   0  1  5.709909 17.132587 11.421472
266   0  1  5.709962 17.132512 14.277030
267   0  1  5.709909 17.132587 17.132587
268   0  1  5.709812 17.132683 19.987994
269   0  1  5.709814 17.132681 22.843197
270   0  1  5.709837 17.132668 25.698385
271   0  1  5.709400 19.988406  0.000470
272   0  1  5.709390 19.988416  2.855557
273   0  1  5.709376 19.988430  5.710607
274   0  1  5.709400 19.988406  8.565654
275   0  1  5.709812 19.987994 11.421376
276   0  1  5.709943 19.987863 14.277030
277   0  1  5.709812 19.987994 17.132683
278   0  1  5.709400 19.988406 19.988406
279   0  1  5.709376 19.988430 22.843453
280   0  1  5.709390 19.988416 25.698503
281   0  1  5.709459 22.843559  0.000470
282   0  1  5.709405 22.843609  2.855478
283   0  1  5.709226 22.843732  5.710328
284   0  1  5.709376 22.843453  8.565630
285   0  1  5.709814 22.843197 11.421379
286   0  1  5.709962 22.843112 14.277030
287   0  1  5.709814 22.843197 17.132681
288   0  1  5.709376 22.843453 19.988430
289   0  1  5.709226 22.843732 22.843732
290   0  1  5.709405 22.843609 25.698582
291   0  1  5.710058 25.698412  0.000470
292   0  1  5.709938 25.698461  2.855598
293   0  1  5.709405 25.698582  5.710450
294   0  1  5.709390 25.698503  8.565644
295   0  1  5.709837 25.698385 11.421392
296   0  1  5.709989 25.698346 14.277030
297   0  1  5.709837 25.698385 17.132668
298   0  1  5.709390 25.698503 19.988416
299   0  1  5.709405 25.698582 22.843609
300   0  1  5.709938 25.698461 25.698461
301   0  1  8.565549  0.000470  0.000470
302   0  1  8.565465  0.000470  2.855752
303   0  1  8.565277  0.000470  5.710942
304   0  1  8.565144  0.000470  8.566101
305   0  1  8.565210  0.000470 11.421464
306   0  1  8.565302  0.000470 14.277030
307   0  1  8.565210  0.000470 17.132596
308   0  1  8.565144  0.000470 19.987958
309   0  1  8.565278  0.000470 22.843117
310   0  1  8.565465  0.000470 25.698308
311   0  1  8.565465  2.855752  0.000470
312   0  1  8.565414  2.855727  2.855727
313   0  1  8.565251  2.855682  5.710914
314   0  1  8.565138  2.855674  8.566091
315   0  1  8.565209  2.855694 11.421463
316   0  1  8.565300  2.855709 14.277030
317   0  1  8.565209  2.855694 17.132597
318   0  1  8.565138  2.855674 19.987969
319   0  1  8.565251  2.855682 22.843145
320   0  1  8.565414  2.855727 25.698333
321   0  1  8.565277  5.710942  0.000470
322   0  1  8.565251  5.710914  2.855682
323   0  1  8.565181  5.710860  5.710860
324   0  1  8.565125  5.710862  8.566068
325   0  1  8.565209  5.710916 11.421463
326   0  1  8.565295  5.710950 14.277030
327   0  1  8.565209  5.710916 17.132597
328   0  1  8.565125  5.710862 19.987991
329   0  1  8.565181  5.710860 22.843199
330   0  1  8.565251  5.710914 25.698378
331   0  1  8.565144  8.566101  0.000470
332   0  1  8.565138  8.566091  2.855674
333   0  1  8.565125  8.566068  5.710862
334   0  1  8.565123  8.566066  8.566066
335   0  1  8.565219  8.566163 11.421472
336   0  1  8.565294  8.566216 14.277030
337   0  1  8.565219  8.566163 17.132587
338   0  1  8.565123  8.566066 19.987994
339   0  1  8.565125  8.566068 22.843197
340   0  1  8.565138  8.566091 25.698385
341   0  1  8.565210 11.421464  0.000470
342   0  1  8.565209 11.421463  2.855694
343   0  1  8.565209 11.421463  5.710916
344   0  1  8.565219 11.421472  8.566163
345   0  1  8.565255 11.421509 11.421509
346   0  1  8.565306 11.421560 14.277030
347   0  1  8.565255 11.421509 17.132551
348   0  1  8.565219 11.421472 19.987897
349   0  1  8.565209 11.421463 22.843143
350   0  1  8.565209 11.421463 25.698366
351   0  1  8.565302 14.277030  0.000470
352   0  1  8.565300 14.277030  2.855709
353   0  1  8.565295 14.277030  5.710950
354   0  1  8.565294 14.277030  8.566216
355   0  1  8.565306 14.277030 11.421560
356   0  1  8.565327 14.277030 14.277030
357   0  1  8.565306 14.277030 17.132500
358   0  1  8.565294 14.277030 19.987844
359   0  1  8.565295 14.277030 22.843110
360   0  1  8.565300 14.277030 25.698351
361   0  1  8.565210 17.132596  0.000470
362   0  1  8.565209 17.132597  2.855694
363   0  1  8.565209 17.132597  5.710916
364   0  1  8.565219 17.132587  8.566163
365   0  1  8.565255 17.132551 11.421509
366   0  1  8.565306 17.132500 14.277030
367   0  1  8.565255 17.132551 17.132551
368   0  1  8.565219 17.132587 19.987897
369   0  1  8.565209 17.132597 22.843143
370   0  1  8.565209 17.132597 25.698366
371   0  1  8.565144 19.987958  0.000470
372   0  1  8.565138 19.987969  2.855674
373   0  1  8.565125 19.987991  5.710862
374   0  1  8.565123 19.987994  8.566066
375   0  1  8.565219 19.987897 11.421472
376   0  1  8.565294 19.987844 14.277030
377   0  1  8.565219 19.987897 17.132587
378   0  1  8.565123 19.987994 19.987994
379   0  1  8.565125 19.987991 22.843197
380   0  1  8.565138 19.987969 25.698385
381   0  1  8.565278 22.843117  0.000470
382   0  1  8.565251 22.843145  2.855682
383   0  1  8.565181 22.843199  5.710860
384   0  1  8.565125 22.843197  8.566068
385   0  1  8.565209 22.843143 11.421463
386   0  1  8.565295 22.843110 14.277030
387   0  1  8.565209 22.843143 17.132597
388   0  1  8.565125 22.843197 19.987991
389   0  1  8.565181 22.843199 22.843199
390   0  1  8.565251 22.843145 25.698378
391   0  1  8.565465 25.698308  0.000470
392   0  1  8.565414 25.698333  2.855727
393   0  1  8.565251 25.698378  5.710914
394   0  1  8.565138 25.698385  8.566091
395   0  1  8.565209 25.698366 11.421463
396   0  1  8.565300 25.698351 14.277030
397   0  1  8.565209 25.698366 17.132597
398   0  1  8.565138 25.698385 19.987969
399   0  1  8.565251 25.698378 22.843145
400   0  1  8.565414 25.698333 25.698333
401   0  1 11.420776  0.000470  0.000470
402   0  1 11.420776  0.000470  2.855777
403   0  1 11.420776  0.000470  5.711037
404   0  1 11.420776  0.000470  8.566254
405   0  1 11.420776  0.000470 11.421556
406   0  1 11.420776  0.000470 14.277030
407   0  1 11.420776  0.000470 17.132504
408   0  1 11.420776  0.000470 19.987805
409   0  1 11.420776  0.000470 22.843023
410   0  1 11.420776  0.000470 25.698282
411   0  1 11.420776  2.855777  0.000470
412   0  1 11.420776  2.855761  2.855761
413   0  1 11.420776  2.855732  5.711016
414   0  1 11.420776  2.855714  8.566243
415   0  1 11.420776  2.855709 11.421553
416   0  1 11.420776  2.855709 14.277030
417   0  1 11.420776  2.855709 17.132506
418   0  1 11.420776  2.855714 19.987817
419   0  1 11.420776  2.855732 22.843043
420   0  1 11.420776  2.855761 25.698298
421   0  1 11.420776  5.711037  0.000470
422   0  1 11.420776  5.711016  2.855732
423   0  1 11.420776  5.710974  5.710974
424   0  1 11.420776  5.710948  8.566216
425   0  1 11.420776  5.710950 11.421548
426   0  1 11.420776  5.710956 14.277030
427   0  1 11.420776  5.710950 17.132511
428   0  1 11.420776  5.710948 19.987844
429   0  1 11.420776  5.710974 22.843086
430   0  1 11.420776  5.711016 25.698327
431   0  1 11.420776  8.566254  0.000470
432   0  1 11.420776  8.566243  2.855714
433   0  1 11.420776  8.566216  5.710948
434   0  1 11.420776  8.566197  8.566197
435   0  1 11.420776  8.566216 11.421548
436   0  1 11.420776  8.566232 14.277030
437   0  1 11.420776  8.566216 17.132512
438   0  1 11.420776  8.566197 19.987863
439   0  1 11.420776  8.566216 22.843112
440   0  1 11.420776  8.566243 25.698346
441   0  1 11.420776 11.421556  0.000470
442   0  1 11.420776 11.421553  2.855709
443   0  1 11.420776 11.421548  5.710950
444   0  1 11.420776 11.421548  8.566216
445   0  1 11.420776 11.421560 11.421560
446   0  1 11.420776 11.421580 14.277030
447   0  1 11.420776 11.421560 17.132500
448   0  1 11.420776 11.421548 19.987844
449   0  1 11.420776 11.421548 22.843110
450   0  1 11.420776 11.421553 25.698351
451   0  1 11.420776 14.277030  0.000470
452   0  1 11.420776 14.277030  2.855709
453   0  1 11.420776 14.277030  5.710956
454   0  1 11.420776 14.277030  8.566232
455   0  1 11.420776 14.277030 11.421580
456   0  1 11.420776 14.277030 14.277030
457   0  1 11.420776 14.277030 17.132479
458   0  1 11.420776 14.277030 19.987828
459   0  1 11.420776 14.277030 22.843104
460   0  1 11.420776 14.277030 25.698350
461   0  1 11.420776 17.132504  0.000470
462   0  1 11.420776 17.132506  2.855709
463   0  1 11.420776 17.132511  5.710950
464   0  1 11.420776 17.132512  8.566216
465   0  1 11.420776 17.132500 11.421560
466   0  1 11.420776 17.132479 14.277030
467   0  1 11.420776 17.132500 17.132500
468   0  1 11.420776 17.132512 19.987844
469   0  1 11.420776 17.132511 22.843110
470   0  1 11.420776 17.132506 25.698351
471   0  1 11.420776 19.987805  0.000470
472   0  1 11.420776 19.987817  2.855714
473   0  1 11.420776 19.987844  5.710948
474   0  1 11.420776 19.987863  8.566197
475   0  1 11.420776 19.987844 11.421548
476   0  1 11.420776 19.987828 14.277030
477   0  1 11.420776 19.987844 17.132512
478   0  1 11.420776 19.987863 19.987863
479   0  1 11.420776 19.987844 22.843112
480   0  1 11.420776 19.987817 25.698346
481   0  1 11.420776 22.843023  0.000470
482   0  1 11.420776 22.843043  2.855732
483   0  1 11.420776 22.843086  5.710974
484   0  1 11.420776 22.843112  8.566216
485   0  1 11.420776 22.843110 11.421548
486   0  1 11.420776 22.843104 14.277030
487   0  1 11.420776 22.843110 17.132511
488   0  1 11.420776 22.843112 19.987844
489   0  1 11.420776 22.843086 22.843086
490   0  1 11.420776 22.843043 25.698327
491   0  1 11.420776 25.698282  0.000470
492   0  1 11.420776 25.698298  2.855761
493   0  1 11.420776 25.698327  5.711016
494   0  1 11.420776 25.698346  8.566243
495   0  1 11.420776 25.698351 11.421553
496   0  1 11.420776 25.698350 14.277030
497   0  1 11.420776 25.698351 17.132506
498   0  1 11.420776 25.698346 19.987817
499   0  1 11.420776 25.698327 22.843043
500   0  1 11.420776 25.698298 25.698298
501   0  1 14.276004  0.000470  0.000470
502   0  1 14.276088  0.000470  2.855752
503   0  1 14.276275  0.000470  5.710942
504   0  1 14.276408  0.000470  8.566101
505   0  1 14.276342  0.000470 11.421464
506   0  1 14.276250  0.000470 14.277030
507   0  1 14.276342  0.000470 17.132596
508   0  1 14.276408  0.000470 19.987958
509   0  1 14.276275  0.000470 22.843117
510   0  1 14.276088  0.000470 25.698308
511   0  1 14.276088  2.855752  0.000470
512   0  1 14.276138  2.855727  2.855727
513   0  1 14.276301  2.855682  5.710914
514   0  1 14.276414  2.855674  8.566091
515   0  1 14.276343  2.855694 11.421463
516   0  1 14.276253  2.855709 14.277030
517   0  1 14.276343  2.855694 17.132597
518   0  1 14.276414  2.855674 19.987969
519   0  1 14.276301  2.855682 22.843145
520   0  1 14.276138  2.855727 25.698333
521   0  1 14.276275  5.710942  0.000470
522   0  1 14.276301  5.710914  2.855682
523   0  1 14.276372  5.710860  5.710860
524   0  1 14.276427  5.710862  8.566068
525   0  1 14.276343  5.710916 11.421462
526   0  1 14.276258  5.710950 14.277030
527   0  1 14.276343  5.710916 17.132597
528   0  1 14.276427  5.710862 19.987991
529   0  1 14.276372  5.710860 22.843199
530   0  1 14.276301  5.710914 25.698378
531   0  1 14.276408  8.566101  0.000470
532   0  1 14.276414  8.566091  2.855674
533   0  1 14.276427  8.566068  5.710862
534   0  1 14.276430  8.566066  8.566066
535   0  1 14.276334  8.566163 11.421472
536   0  1 14.276258  8.566216 14.277030
537   0  1 14.276334  8.566163 17.132587
538   0  1 14.276430  8.566066 19.987994
539   0  1 14.276427  8.566068 22.843197
540   0  1 14.276414  8.566091 25.698385
541   0  1 14.276342 11.421464  0.000470
542   0  1 14.276343 11.421463  2.855694
543   0  1 14.276343 11.421462  5.710916
544   0  1 14.276334 11.421472  8.566163
545   0  1 14.276297 11.421509 11.421509
546   0  1 14.276246 11.421560 14.277030
547   0  1 14.276297 11.421509 17.132551
548   0  1 14.276334 11.421472 19.987897
549   0  1 14.276343 11.421463 22.843143
550   0  1 14.276343 11.421463 25.698366
551   0  1 14.276250 14.277030  0.000470
552   0  1 14.276253 14.277030  2.855709
553   0  1 14.276258 14.277030  5.710950
554   0  1 14.276258 14.277030  8.566216
555   0  1 14.276246 14.277030 11.421560
556   0  1 14.276226 14.277030 14.277030
557   0  1 14.276246 14.277030 17.132500
558   0  1 14.276258 14.277030 19.987844
559   0  1 14.276258 14.277030 22.843110
560   0  1 14.276253 14.277030 25.698351
561   0  1 14.276342 17.132596  0.000470
562   0  1 14.276343 17.132597  2.855694
563   0  1 14.276343 17.132597  5.710916
564   0  1 14.276334 17.132587  8.566163
565   0  1 14.276297 17.132551 11.421509
566   0  1 14.276246 17.132500 14.277030
567   0  1 14.276297 17.132551 17.132551
568   0  1 14.276334 17.132587 19.987897
569   0  1 14.276343 17.132597 22.843143
570   0  1 14.276343 17.132597 25.698366
571   0  1 14.276408 19.987958  0.000470
572   0  1 14.276414 19.987969  2.855674
573   0  1 14.276427 19.987991  5.710862
574   0  1 14.276430 19.987994  8.566066
575   0  1 14.276334 19.987897 11.421472
576   0  1 14.276258 19.987844 14.277030
577   0  1 14.276334 19.987897 17.132587
578   0  1 14.276430 19.987994 19.987994
579   0  1 14.276427 19.987991 22.843197
580   0  1 14.276414 19.987969 25.698385
581   0  1 14.276275 22.843117  0.000470
582   0  1 14.276301 22.843145  2.855682
583   0  1 14.276372 22.843199  5.710860
584   0  1 14.276427 22.843197  8.566068
585   0  1 14.276343 22.843143 11.421463
586   0  1 14.276258 22.843110 14.277030
587   0  1 14.276343 22.843143 17.132597
588   0  1 14.276427 22.843197 19.987991
589   0  1 14.276372 22.843199 22.843199
590   0  1 14.276301 22.843145 25.698378
591   0  1 14.276088 25.698308  0.000470
592   0  1 14.276138 25.698333  2.855727
593   0  1 14.276301 25.698378  5.710914
594   0  1 14.276414 25.698385  8.566091
595   0  1 14.276343 25.698366 11.421463
596   0  1 14.276253 25.698351 14.277030
597   0  1 14.276343 25.698366 17.132597
598   0  1 14.276414 25.698385 19.987969
599   0  1 14.276301 25.698378 22.843145
600   0  1 14.276138 25.698333 25.698333
601   0  1 17.131090  0.000470  0.000470
602   0  1 17.131494  0.000470  2.855648
603   0  1 17.132093  0.000470  5.710500
604   0  1 17.132153  0.000470  8.565653
605   0  1 17.131705  0.000470 11.421398
606   0  1 17.131552  0.000470 14.277030
607   0  1 17.131705  0.000470 17.132662
608   0  1 17.132153  0.000470 19.988406
609   0  1 17.132093  0.000470 22.843559
610   0  1 17.131494  0.000470 25.698412
611   0  1 17.131494  2.855648  0.000470
612   0  1 17.131614  2.855598  2.855598
613   0  1 17.132147  2.855478  5.710450
614   0  1 17.132162  2.855557  8.565644
615   0  1 17.131715  2.855674 11.421392
616   0  1 17.131563  2.855714 14.277030
617   0  1 17.131715  2.855674 17.132668
618   0  1 17.132162  2.855557 19.988416
619   0  1 17.132147  2.855478 22.843609
620   0  1 17.131614  2.855598 25.698461
621   0  1 17.132093  5.710500  0.000470
622   0  1 17.132147  5.710450  2.855478
623   0  1 17.132327  5.710328  5.710328
624   0  1 17.132176  5.710607  8.565630
625   0  1 17.131738  5.710862 11.421379
626   0  1 17.131590  5.710948 14.277030
627   0  1 17.131738  5.710862 17.132681
628   0  1 17.132176  5.710607 19.988430
629   0  1 17.132327  5.710328 22.843732
630   0  1 17.132147  5.710450 25.698582
631   0  1 17.132153  8.565653  0.000470
632   0  1 17.132162  8.565644  2.855557
633   0  1 17.132176  8.565630  5.710607
634   0  1 17.132152  8.565654  8.565654
635   0  1 17.131740  8.566066 11.421376
636   0  1 17.131609  8.566197 14.277030
637   0  1 17.131740  8.566066 17.132683
638   0  1 17.132152  8.565654 19.988406
639   0  1 17.132176  8.565630 22.843453
640   0  1 17.132162  8.565644 25.698503
641   0  1 17.131705 11.421398  0.000470
642   0  1 17.131715 11.421392  2.855674
643   0  1 17.131738 11.421379  5.710862
644   0  1 17.131740 11.421376  8.566066
645   0  1 17.131643 11.421472 11.421472
646   0  1 17.131590 11.421548 14.277030
647   0  1 17.131643 11.421472 17.132587
648   0  1 17.131740 11.421376 19.987994
649   0  1 17.131738 11.421379 22.843197
650   0  1 17.131715 11.421392 25.698385
651   0  1 17.131552 14.277030  0.000470
652   0  1 17.131563 14.277030  2.855714
653   0  1 17.131590 14.277030  5.710948
654   0  1 17.131609 14.277030  8.566197
655   0  1 17.131590 14.277030 11.421548
656   0  1 17.131574 14.277030 14.277030
657   0  1 17.131590 14.277030 17.132512
658   0  1 17.131609 14.277030 19.987863
659   0  1 17.131590 14.277030 22.843112
660   0  1 17.131563 14.277030 25.698346
661   0  1 17.131705 17.132662  0.000470
662   0  1 17.131715 17.132668  2.855674
663   0  1 17.131738 17.132681  5.710862
664   0  1 17.131740 17.132683  8.566066
665   0  1 17.131643 17.132587 11.421472
666   0  1 17.131590 17.132512 14.277030
667   0  1 17.131643 17.132587 17.132587
668   0  1 17.131740 17.132683 19.987994
669   0  1 17.131738 17.132681 22.843197
670   0  1 17.131715 17.132668 25.698385
671   0  1 17.132153 19.988406  0.000470
672   0  1 17.132162 19.988416  2.855557
673   0  1 17.132176 19.988430  5.710607
674   0  1 17.132152 19.988406  8.565654
675   0  1 17.131740 19.987994 11.421376
676   0  1 17.131609 19.987863 14.277030
677   0  1 17.131740 19.987994 17.132683
678   0  1 17.132152 19.988406 19.988406
679   0  1 17.132176 19.988430 22.843453
680   0  1 17.132162 19.988416 25.698503
681   0  1 17.132093 22.843559  0.000470
682   0  1 17.132147 22.843609  2.855478
683   0  1 17.132327 22.843732  5.710328
684   0  1 17.132176 22.843453  8.565630
685   0  1 17.131738 22.843197 11.421379
686   0  1 17.131590 22.843112 14.277030
687   0  1 17.131738 22.843197 17.132681
688   0  1 17.132176 22.843453 19.988430
689   0  1 17.132327 22.843732 22.843732
690   0  1 17.132147 22.843609 25.698582
691   0  1 17.131494 25.698412  0.000470
692   0  1 17.131614 25.698461  2.855598
693   0  1 17.132147 25.698582  5.710450
694   0  1 17.132162 25.698503  8.565644
695   0  1 17.131715 25.698385 11.421392
696   0  1 17.131563 25.698346 14.277030
697   0  1 17.131715 25.698385 17.132668
698   0  1 17.132162 25.698503 19.988416
699   0  1 17.132147 25.698582 22.843609
700   0  1 17.131614 25.698461 25.698461
701   0  1 19.984292  0.000470  0.000470
702   0  1 19.987629  0.000470  2.854968
703   0  1 19.988815  0.000470  5.708991
704   0  1 19.987306  0.000470  8.565713
705   0  1 19.986864  0.000470 11.421531
706   0  1 19.986769  0.000470 14.277030
707   0  1 19.986864  0.000470 17.132528
708   0  1 19.987306  0.000470 19.988347
709   0  1 19.988815  0.000470 22.845069
710   0  1 19.987629  0.000470 25.699091
711   0  1 19.987629  2.854968  0.000470
712   0  1 19.987953  2.854913  2.854913
713   0  1 19.988828  2.855074  5.708978
714   0  1 19.987356  2.855478  8.565659
715   0  1 19.986892  2.855682 11.421505
716   0  1 19.986790  2.855732 14.277030
717   0  1 19.986892  2.855682 17.132555
718   0  1 19.987356  2.855478 19.988401
719   0  1 19.988828  2.855074 22.845082
720   0  1 19.987953  2.854913 25.699147
721   0  1 19.988815  5.708991  0.000470
722   0  1 19.988828  5.708978  2.855074
723   0  1 19.989636  5.708170  5.708170
724   0  1 19.987478  5.710328  8.565479
725   0  1 19.986946  5.710860 11.421434