Generated by pymatgen.io.lammps.data.LammpsData

226  atoms

  2  atom types

0.000000 28.553120  xlo xhi
0.000000 28.553120  ylo yhi
0.000000 28.553120  zlo zhi
0.000000 0.000000 0.000000  xy xz yz

Masses

1  55.847000
2  30.973762

Atoms

1     2  1  0.064866 28.544660 28.544660
2     2  1  0.003962  0.010902  2.854424
3     1  1  0.001106  0.001144  5.711481
8     1  1 28.552447  0.000764 19.987303
9     2  1 28.552025  0.002885 22.845816
10    2  1 28.466313 28.498214 25.784613
11    2  1  0.003962  2.854424  0.010902
12    2  1 28.531397  2.830254  2.830254
13    1  1 28.551736  2.853476  5.708307
19    2  1  0.002718  2.856122 22.843660
20    2  1  0.000539  2.859348 25.697267
21    1  1  0.001106  5.711481  0.001144
22    1  1 28.551736  5.708307  2.853476
30    2  1  0.001846  5.713844 25.695960
71    1  1 28.552447 19.987303  0.000764
80    1  1 28.552445 19.988024 25.698481
81    2  1 28.552025 22.845816  0.002885
82    2  1  0.002718 22.843660  2.856122
89    1  1 28.548493 22.850871 22.850871
90    1  1  0.001308 22.844490 25.696498
91    2  1 28.466313 25.784613 28.498214
92    2  1  0.000539 25.697267  2.859348
93    2  1  0.001846 25.695960  5.713844
98    1  1 28.552445 25.698481 19.988024
99    1  1  0.001308 25.696498 22.844490
100   2  1 28.507759 25.743167 25.743167
101   2  1  2.863284  0.005162  0.005162
102   2  1  2.855436 28.552174  2.855115
109   1  1  2.848263  0.000597 22.849543
110   2  1  2.851990  0.002885 25.698901
111   2  1  2.855436  2.855115 28.552174
112   2  1  2.855235  2.854548  2.854548
119   1  1  2.845620  2.846966 22.852186
120   2  1  2.854146  2.856122 25.695088
181   1  1  2.848263 22.849543  0.000597
182   1  1  2.845620 22.852186  2.846966
189   1  1  2.846242 22.851564 22.851564
190   1  1  2.846935 22.850871 25.702433
191   2  1  2.851990 25.698901  0.002885
192   2  1  2.854146 25.695088  2.856122
199   1  1  2.846935 25.702433 22.850871
200   1  1  2.853316 25.696498 25.696498
201   1  1  5.711429  0.001003  0.001003
210   1  1  5.710503  0.000764 25.698479
291   1  1  5.710503 25.698479  0.000764
300   1  1  5.709782 25.698481 25.698481
701   1  1 19.984452 28.552867 28.552867
702   1  1 19.990110 28.551736  2.852592
703   1  1 19.991191 28.552448  5.706615
710   1  1 19.986325  0.001144 25.696700
711   1  1 19.990110  2.852592 28.551736
712   1  1 19.990103  2.853494  2.853494
713   1  1 19.991583  2.852706  5.706223
720   1  1 19.989499  2.853476 25.699190
721   1  1 19.991191  5.706615 28.552448
722   1  1 19.991583  5.706223  2.852706
791   1  1 19.986325 25.696700  0.001144
792   1  1 19.989499 25.699190  2.853476
800   2  1 19.983962 25.695960 25.695960
801   2  1 22.797761  0.001912  0.001912
802   2  1 22.858832 28.544634  2.838974
803   1  1 22.845214 28.551736  5.707696
809   2  1 22.842691 28.552174 22.842370
810   2  1 22.843382  0.010902 25.693844
811   2  1 22.858832  2.838974 28.544634
812   1  1 22.861407  2.836399  2.836399
813   1  1 22.844312  2.853494  5.707703
819   2  1 22.843258  2.854548 22.842571
820   2  1 22.867552  2.830254 25.719529
821   1  1 22.845214  5.707696 28.551736
822   1  1 22.844312  5.707703  2.853494
823   1  1 22.845100  5.706223  5.706223
830   1  1 22.844330  5.708307 25.699190
881   2  1 22.842691 22.842370 28.552174
882   2  1 22.843258 22.842571  2.854548
889   1  1 22.850840 22.852186 22.852186
890   2  1 22.841684 22.843660 25.695088
891   2  1 22.843382 25.693844  0.010902
892   2  1 22.867552 25.719529  2.830254
893   1  1 22.844330 25.699190  5.708307
899   2  1 22.841684 25.695088 22.843660
900   2  1 22.838458 25.697267 25.697267
901   2  1 26.411448 27.839477 27.839477
902   2  1 25.695894  0.001912  2.900045
903   1  1 25.698059 28.552867  5.713354
908   1  1 25.696803  0.001003 19.986377
909   2  1 25.692644  0.005162 22.834522
910   2  1 25.706266 28.544660 25.632940
911   2  1 25.695894  2.900045  0.001912
912   2  1 25.706292  2.838974  2.838974
913   1  1 25.699190  2.852592  5.707696
919   2  1 25.698752  2.855115 22.842370
920   2  1 25.686904  2.854424 25.693844
921   1  1 25.698059  5.713354 28.552867
922   1  1 25.699190  5.707696  2.852592
923   1  1 25.698478  5.706615  5.706615
930   1  1 25.696662  5.711481 25.696700
971   1  1 25.696803 19.986377  0.001003
980   1  1 25.697042 19.987303 25.698479
981   2  1 25.692644 22.834522  0.005162
982   2  1 25.698752 22.842370  2.855115
989   1  1 25.697209 22.849543 22.849543
990   2  1 25.694921 22.845816 25.698901
991   2  1 25.706266 25.632940 28.544660
992   2  1 25.686904 25.693844  2.854424
993   1  1 25.696662 25.696700  5.711481
998   1  1 25.697042 25.698479 19.987303
999   2  1 25.694921 25.698901 22.845816
1000  2  1 25.752712 25.784613 25.784613
1001  2  1  1.431319  1.428568  1.428568
1002  2  1  1.428093  1.430747  4.282175
1008  1  1  1.425447  1.426645 21.417528
1009  2  1  1.402225  1.406306 24.295581
1010  2  1  1.426395  1.431991 27.114933
1011  2  1  1.428093  4.282175  1.430747
1012  1  1  1.418937  4.273649  4.273649
1019  1  1  1.426519  4.283264 24.271287
1020  2  1  1.427086  4.283465 27.126781
1071  1  1  1.425447 21.417528  1.426645
1079  1  1  1.425465 21.418132 24.272341
1080  1  1  1.424563 21.418139 27.127219
1081  2  1  1.402225 24.295581  1.406306
1082  1  1  1.426519 24.271287  4.283264
1088  1  1  1.425465 24.272341 21.418132
1089  1  1  1.408370 24.289436 24.289436
1090  2  1  1.410945 24.286861 27.134321
1091  2  1  1.426395 27.114933  1.431991
1092  2  1  1.427086 27.126781  4.283465
1098  1  1  1.424563 27.127219 21.418139
1099  2  1  1.410945 27.134321 24.286861
1100  2  1  1.472016 27.123923 27.123923
1101  1  1  4.285815  1.429875  1.429875
1109  1  1  4.280278  1.426645 24.272359
1110  1  1  4.283452  1.429135 27.124691
1180  1  1  4.278586 21.419220 27.126507
1181  1  1  4.280278 24.272359  1.426645
1189  1  1  4.279674 24.272341 24.272341
1190  1  1  4.279667 24.273243 27.127219
1191  1  1  4.283452 27.124691  1.429135
1198  1  1  4.278586 27.126507 21.419220
1199  1  1  4.279667 27.127219 24.273243
1200  1  1  4.285325 27.126088 27.126088
1601  1  1 18.559995  1.427354  1.427354
1602  1  1 18.561945  1.426413  4.280862
1610  1  1 18.559274  1.427356 27.125071
1611  1  1 18.561945  4.280862  1.426413
1620  1  1 18.561328  4.281345 27.125656
1691  1  1 18.559274 27.125071  1.427356
1692  1  1 18.561328 27.125656  4.281345
1700  1  1 18.558348 27.124832 27.124832
1701  2  1 21.416461  1.429337  1.429337
1702  1  1 21.422842  1.423402  4.274964
1703  1  1 21.416944  1.426413  7.135861
1709  2  1 21.415631  1.430747 24.269713
1710  2  1 21.417787  1.426934 27.122950
1711  1  1 21.422842  4.274964  1.423402
1712  1  1 21.423535  4.274271  4.274271
1719  1  1 21.424157  4.273649 24.278869
1720  1  1 21.421514  4.276292 27.125238
1721  1  1 21.416944  7.135861  1.426413
1730  1  1 21.416461  7.136478 27.125656
1781  2  1 21.415631 24.269713  1.430747
1782  1  1 21.424157 24.278869  4.273649
1789  1  1 21.414542 24.271287 24.271287
1790  2  1 21.414341 24.270720 27.126781
1791  2  1 21.417787 27.122950  1.426934
1792  1  1 21.421514 27.125238  4.276292
1793  1  1 21.416461 27.125656  7.136478
1799  2  1 21.414341 27.126781 24.270720
1800  2  1 21.406493 27.120673 27.120673
1801  2  1 24.315138  1.382668  1.382668
1802  2  1 24.268469  1.429337  4.281345
1803  1  1 24.270452  1.427354  7.137811
1808  1  1 24.267931  1.429875 21.411991
1809  2  1 24.269238  1.428568 24.266487
1810  2  1 24.356584  1.341222 27.180741
1811  2  1 24.268469  4.281345  1.429337
1812  1  1 24.274404  4.274964  4.274964
1813  1  1 24.271393  4.280862  7.135861
1819  2  1 24.267059  4.282175 24.269713
1820  2  1 24.270872  4.280019 27.122950
1821  1  1 24.270452  7.137811  1.427354
1822  1  1 24.271393  7.135861  4.280862
1830  1  1 24.270450  7.138532 27.125071
1871  1  1 24.267931 21.411991  1.429875
1879  1  1 24.271161 21.417528 24.272359
1880  1  1 24.268671 21.414354 27.124691
1881  2  1 24.269238 24.266487  1.428568
1882  2  1 24.267059 24.269713  4.282175
1888  1  1 24.271161 24.272359 21.417528
1889  2  1 24.291500 24.295581 24.295581
1890  2  1 24.265815 24.271411 27.114933
1891  2  1 24.356584 27.180741  1.341222
1892  2  1 24.270872 27.122950  4.280019
1893  1  1 24.270450 27.125071  7.138532
1898  1  1 24.268671 27.124691 21.414354
1899  2  1 24.265815 27.114933 24.271411
1900  2  1 24.204911 27.134295 27.134295
1901  2  1 27.070185  1.341222  1.341222
1902  2  1 27.127976  1.426934  4.280019
1903  1  1 27.125855  1.427356  7.138532
1908  1  1 27.126235  1.429135 21.414354
1909  2  1 27.135993  1.431991 24.271411
1910  2  1 27.116631  1.492895 27.134295
1911  2  1 27.127976  4.280019  1.426934
1912  1  1 27.125688  4.276292  4.276292
1913  1  1 27.125270  4.281345  7.136478
1919  2  1 27.124145  4.283465 24.270720
1920  2  1 27.130253  4.291313 27.120673
1921  1  1 27.125855  7.138532  1.427356
1922  1  1 27.125270  7.136478  4.281345
1930  1  1 27.126094  7.139458 27.124832
1971  1  1 27.126235 21.414354  1.429135
1978  1  1 27.124419 21.419220 21.419220
1979  1  1 27.123707 21.418139 24.273243
1980  1  1 27.124838 21.412481 27.126088
1981  2  1 27.135993 24.271411  1.431991
1982  2  1 27.124145 24.270720  4.283465
1988  1  1 27.123707 24.273243 21.418139
1989  2  1 27.116605 24.286861 24.286861
1990  2  1 27.127003 24.225790 27.123923
1991  2  1 27.116631 27.134295  1.492895
1992  2  1 27.130253 27.120673  4.291313
1993  1  1 27.126094 27.124832  7.139458
1998  1  1 27.124838 27.126088 21.412481
1999  2  1 27.127003 27.123923 24.225790

